
     Program PWSCF v.6.7MaX starts on 24Feb2022 at 10:16:13 

     This program is part of the open-source Quantum ESPRESSO suite
     for quantum simulation of materials; please cite
         "P. Giannozzi et al., J. Phys.:Condens. Matter 21 395502 (2009);
         "P. Giannozzi et al., J. Phys.:Condens. Matter 29 465901 (2017);
          URL http://www.quantum-espresso.org", 
     in publications or presentations arising from this work. More details at
     http://www.quantum-espresso.org/quote

     Parallel version (MPI), running on     1 processors

     MPI processes distributed on     1 nodes
     Waiting for input...
     Reading input from standard input
Warning: card &CELL ignored
Warning: card 	CELL_DYNAMICS = 'BFGS' ignored
Warning: card / ignored

     Current dimensions of program PWSCF are:
     Max number of different atomic species (ntypx) = 10
     Max number of k-points (npk) =  40000
     Max angular momentum in pseudopotentials (lmaxx) =  3
     file Al.pbe-n-kjpaw_psl.1.0.0.UPF: wavefunction(s)  3S 3P renormalized

     Subspace diagonalization in iterative solution of the eigenvalue problem:
     a serial algorithm will be used


     G-vector sticks info
     --------------------
     sticks:   dense  smooth     PW     G-vecs:    dense   smooth      PW
     Sum         499     499    163                 6975     6975    1291



     bravais-lattice index     =            2
     lattice parameter (alat)  =       7.6515  a.u.
     unit-cell volume          =     111.9901 (a.u.)^3
     number of atoms/cell      =            1
     number of atomic types    =            1
     number of electrons       =         3.00
     number of Kohn-Sham states=            6
     kinetic-energy cutoff     =      60.0000  Ry
     charge density cutoff     =     240.0000  Ry
     scf convergence threshold =      1.0E-08
     mixing beta               =       0.7000
     number of iterations used =            8  plain     mixing
     Exchange-correlation= SLA  PW   PBX  PBC
                           (   1   4   3   4   0   0   0)

     celldm(1)=   7.651500  celldm(2)=   0.000000  celldm(3)=   0.000000
     celldm(4)=   0.000000  celldm(5)=   0.000000  celldm(6)=   0.000000

     crystal axes: (cart. coord. in units of alat)
               a(1) = (  -0.500000   0.000000   0.500000 )  
               a(2) = (   0.000000   0.500000   0.500000 )  
               a(3) = (  -0.500000   0.500000   0.000000 )  

     reciprocal axes: (cart. coord. in units 2 pi/alat)
               b(1) = ( -1.000000 -1.000000  1.000000 )  
               b(2) = (  1.000000  1.000000  1.000000 )  
               b(3) = ( -1.000000  1.000000 -1.000000 )  


     PseudoPot. # 1 for Al read from file:
     ./Al.pbe-n-kjpaw_psl.1.0.0.UPF
     MD5 check sum: 502b6b27b9c6270cab5dd1084b96fa6d
     Pseudo is Projector augmented-wave + core cor, Zval =  3.0
     Generated using &quot;atomic&quot; code by A. Dal Corso  v.6.3
     Shape of augmentation charge: PSQ
     Using radial grid of 1135 points,  6 beta functions with: 
                l(1) =   0
                l(2) =   0
                l(3) =   1
                l(4) =   1
                l(5) =   2
                l(6) =   2
     Q(r) pseudized with 0 coefficients 


     atomic species   valence    mass     pseudopotential
        Al             3.00    26.98100     Al( 1.00)

     48 Sym. Ops., with inversion, found



   Cartesian axes

     site n.     atom                  positions (alat units)
         1           Al  tau(   1) = (   0.0000000   0.0000000   0.0000000  )

     number of k points=    47  Methfessel-Paxton smearing, width (Ry)=  0.0500
                       cart. coord. in units 2pi/alat
        k(    1) = (   0.0000000   0.0000000   0.0000000), wk =   0.0020000
        k(    2) = (  -0.1000000   0.1000000  -0.1000000), wk =   0.0160000
        k(    3) = (  -0.2000000   0.2000000  -0.2000000), wk =   0.0160000
        k(    4) = (  -0.3000000   0.3000000  -0.3000000), wk =   0.0160000
        k(    5) = (  -0.4000000   0.4000000  -0.4000000), wk =   0.0160000
        k(    6) = (   0.5000000  -0.5000000   0.5000000), wk =   0.0080000
        k(    7) = (   0.0000000   0.2000000   0.0000000), wk =   0.0120000
        k(    8) = (  -0.1000000   0.3000000  -0.1000000), wk =   0.0480000
        k(    9) = (  -0.2000000   0.4000000  -0.2000000), wk =   0.0480000
        k(   10) = (  -0.3000000   0.5000000  -0.3000000), wk =   0.0480000
        k(   11) = (   0.6000000  -0.4000000   0.6000000), wk =   0.0480000
        k(   12) = (   0.5000000  -0.3000000   0.5000000), wk =   0.0480000
        k(   13) = (   0.4000000  -0.2000000   0.4000000), wk =   0.0480000
        k(   14) = (   0.3000000  -0.1000000   0.3000000), wk =   0.0480000
        k(   15) = (   0.2000000   0.0000000   0.2000000), wk =   0.0240000
        k(   16) = (   0.0000000   0.4000000   0.0000000), wk =   0.0120000
        k(   17) = (  -0.1000000   0.5000000  -0.1000000), wk =   0.0480000
        k(   18) = (  -0.2000000   0.6000000  -0.2000000), wk =   0.0480000
        k(   19) = (   0.7000000  -0.3000000   0.7000000), wk =   0.0480000
        k(   20) = (   0.6000000  -0.2000000   0.6000000), wk =   0.0480000
        k(   21) = (   0.5000000  -0.1000000   0.5000000), wk =   0.0480000
        k(   22) = (   0.4000000   0.0000000   0.4000000), wk =   0.0240000
        k(   23) = (   0.0000000   0.6000000   0.0000000), wk =   0.0120000
        k(   24) = (  -0.1000000   0.7000000  -0.1000000), wk =   0.0480000
        k(   25) = (   0.8000000  -0.2000000   0.8000000), wk =   0.0480000
        k(   26) = (   0.7000000  -0.1000000   0.7000000), wk =   0.0480000
        k(   27) = (   0.6000000  -0.0000000   0.6000000), wk =   0.0240000
        k(   28) = (   0.0000000   0.8000000   0.0000000), wk =   0.0120000
        k(   29) = (   0.9000000  -0.1000000   0.9000000), wk =   0.0480000
        k(   30) = (   0.8000000   0.0000000   0.8000000), wk =   0.0240000
        k(   31) = (   0.0000000  -1.0000000   0.0000000), wk =   0.0060000
        k(   32) = (  -0.2000000   0.4000000   0.0000000), wk =   0.0480000
        k(   33) = (  -0.3000000   0.5000000  -0.1000000), wk =   0.0960000
        k(   34) = (   0.6000000  -0.4000000   0.8000000), wk =   0.0960000
        k(   35) = (   0.5000000  -0.3000000   0.7000000), wk =   0.0480000
        k(   36) = (  -0.2000000   0.6000000   0.0000000), wk =   0.0480000
        k(   37) = (   0.7000000  -0.3000000   0.9000000), wk =   0.0960000
        k(   38) = (   0.6000000  -0.2000000   0.8000000), wk =   0.0960000
        k(   39) = (   0.5000000  -0.1000000   0.7000000), wk =   0.0960000
        k(   40) = (   0.4000000   0.0000000   0.6000000), wk =   0.0480000
        k(   41) = (   0.8000000  -0.2000000   1.0000000), wk =   0.0480000
        k(   42) = (   0.7000000  -0.1000000   0.9000000), wk =   0.0960000
        k(   43) = (   0.6000000   0.0000000   0.8000000), wk =   0.0480000
        k(   44) = (  -0.2000000  -1.0000000   0.0000000), wk =   0.0240000
        k(   45) = (   0.6000000  -0.2000000   1.0000000), wk =   0.0480000
        k(   46) = (   0.5000000  -0.1000000   0.9000000), wk =   0.0480000
        k(   47) = (  -0.4000000  -1.0000000   0.0000000), wk =   0.0240000

     Dense  grid:     6975 G-vectors     FFT dimensions: (  27,  27,  27)

     Estimated max dynamical RAM per process >      30.99 MB

     Initial potential from superposition of free atoms

     starting charge    2.99771, renormalised to    3.00000
     Starting wfcs are    4 randomized atomic wfcs +    2 random wfcs
     Checking if some PAW data can be deallocated... 

     total cpu time spent up to now is        0.8 secs

     Self-consistent Calculation

     iteration #  1     ecut=    60.00 Ry     beta= 0.70
     Davidson diagonalization with overlap
     ethr =  1.00E-02,  avg # of iterations =  6.1

     Threshold (ethr) on eigenvalues was too large:
     Diagonalizing with lowered threshold

     Davidson diagonalization with overlap
     ethr =  1.85E-04,  avg # of iterations =  3.3

     total cpu time spent up to now is        3.2 secs

     total energy              =     -39.50208389 Ry
     estimated scf accuracy    <       0.00545289 Ry

     iteration #  2     ecut=    60.00 Ry     beta= 0.70
     Davidson diagonalization with overlap
     ethr =  1.82E-04,  avg # of iterations =  1.0

     total cpu time spent up to now is        4.1 secs

     total energy              =     -39.50203919 Ry
     estimated scf accuracy    <       0.00039499 Ry

     iteration #  3     ecut=    60.00 Ry     beta= 0.70
     Davidson diagonalization with overlap
     ethr =  1.32E-05,  avg # of iterations =  2.3

     total cpu time spent up to now is        5.0 secs

     total energy              =     -39.50204729 Ry
     estimated scf accuracy    <       0.00000050 Ry

     iteration #  4     ecut=    60.00 Ry     beta= 0.70
     Davidson diagonalization with overlap
     c_bands:  1 eigenvalues not converged
     ethr =  1.66E-08,  avg # of iterations =  4.0

     total cpu time spent up to now is        6.1 secs

     End of self-consistent calculation

          k = 0.0000 0.0000 0.0000 (   893 PWs)   bands (ev):

    -3.2526  20.4230  20.4230  21.8781  21.8781  21.8781

          k =-0.1000 0.1000-0.1000 (   899 PWs)   bands (ev):

    -2.9818  17.1458  19.6957  19.6957  22.5648  23.0068

          k =-0.2000 0.2000-0.2000 (   887 PWs)   bands (ev):

    -2.1726  13.1631  18.9394  18.9396  22.2859  23.4136

          k =-0.3000 0.3000-0.3000 (   887 PWs)   bands (ev):

    -0.8339   9.4797  18.5898  18.5898  21.6783  21.6787

          k =-0.4000 0.4000-0.4000 (   869 PWs)   bands (ev):

     1.0196   6.2034  18.6848  18.6848  20.2388  20.2388

          k = 0.5000-0.5000 0.5000 (   886 PWs)   bands (ev):

     3.2739   3.4729  19.1966  19.1966  19.2732  19.2732

          k = 0.0000 0.2000 0.0000 (   889 PWs)   bands (ev):

    -2.8917  18.3016  18.3017  18.6030  21.0897  23.7188

          k =-0.1000 0.3000-0.1000 (   892 PWs)   bands (ev):

    -2.2622  14.6282  17.3283  18.7344  21.1221  21.9381

          k =-0.2000 0.4000-0.2000 (   878 PWs)   bands (ev):

    -1.1007  10.8696  16.8059  18.4044  19.1224  23.9610

          k =-0.3000 0.5000-0.3000 (   882 PWs)   bands (ev):

     0.5802   7.4669  16.7404  17.4470  18.4131  22.9306

          k = 0.6000-0.4000 0.6000 (   881 PWs)   bands (ev):

     2.7595   4.4983  16.2531  17.1342  18.8530  21.8002

          k = 0.5000-0.3000 0.5000 (   872 PWs)   bands (ev):

     1.9803   5.4345  15.5309  17.9875  19.7670  21.1072

          k = 0.4000-0.2000 0.4000 (   879 PWs)   bands (ev):

    -0.0367   8.5500  15.2921  19.2891  20.8661  21.1342

          k = 0.3000-0.1000 0.3000 (   883 PWs)   bands (ev):

    -1.5463  12.0614  15.5540  20.8224  21.2237  22.8944

          k = 0.2000 0.0000 0.2000 (   903 PWs)   bands (ev):

    -2.5316  15.5518  16.6247  21.1264  22.1878  23.3919

          k = 0.0000 0.4000 0.0000 (   885 PWs)   bands (ev):

    -1.8143  16.1784  16.1784  16.2750  18.5605  19.5540

          k =-0.1000 0.5000-0.1000 (   870 PWs)   bands (ev):

    -0.8341  12.6638  15.4919  16.2211  16.9181  20.2815

          k =-0.2000 0.6000-0.2000 (   886 PWs)   bands (ev):

     0.6672   9.1996  14.3724  15.2675  16.9279  22.7911

          k = 0.7000-0.3000 0.7000 (   875 PWs)   bands (ev):

     2.6710   6.1100  12.9875  15.5046  17.2566  24.8044

          k = 0.6000-0.2000 0.6000 (   880 PWs)   bands (ev):

     3.4482   5.1686  12.0982  16.2041  18.0522  23.9832

          k = 0.5000-0.1000 0.5000 (   881 PWs)   bands (ev):

     1.2818   8.0682  11.7485  17.3653  19.3185  23.5825

          k = 0.4000 0.0000 0.4000 (   871 PWs)   bands (ev):

    -0.3905  10.9154  12.3843  18.9792  21.0047  23.2213

          k = 0.0000 0.6000 0.0000 (   866 PWs)   bands (ev):

    -0.0376  13.7141  14.5237  14.6458  14.6458  18.1279

          k =-0.1000 0.7000-0.1000 (   879 PWs)   bands (ev):

     1.2784  11.2844  11.7141  14.2640  15.5676  19.1126

          k = 0.8000-0.2000 0.8000 (   879 PWs)   bands (ev):

     3.0934   8.1789  10.1110  14.3446  15.9278  21.9545

          k = 0.7000-0.1000 0.7000 (   879 PWs)   bands (ev):

     5.2630   5.5166   9.0775  14.8877  16.6063  25.3256

          k = 0.6000-0.0000 0.6000 (   877 PWs)   bands (ev):

     3.1057   7.5874   9.0668  15.8946  17.7455  26.6495

          k = 0.0000 0.8000 0.0000 (   886 PWs)   bands (ev):

     2.4018   9.4048  13.4579  13.7260  13.7260  17.1814

          k = 0.9000-0.1000 0.9000 (   883 PWs)   bands (ev):

     3.9967   7.6784  10.6895  13.6506  14.8845  18.4964

          k = 0.8000 0.0000 0.8000 (   870 PWs)   bands (ev):

     5.5967   6.9013   7.9259  14.0373  15.5855  21.6643

          k = 0.0000-1.0000 0.0000 (   846 PWs)   bands (ev):

     4.9348   6.2459  13.1009  13.4197  13.4197  16.8528

          k =-0.2000 0.4000 0.0000 (   877 PWs)   bands (ev):

    -1.4571  13.2445  14.5267  18.8446  19.8054  21.5999

          k =-0.3000 0.5000-0.1000 (   876 PWs)   bands (ev):

    -0.1253  10.0722  13.6681  16.8718  20.1243  23.1626

          k = 0.6000-0.4000 0.8000 (   877 PWs)   bands (ev):

     1.7181   6.8634  13.6968  15.3545  20.3180  21.9923

          k = 0.5000-0.3000 0.7000 (   876 PWs)   bands (ev):

     3.9420   4.1744  14.0894  14.4702  20.7547  21.1224

          k =-0.2000 0.6000 0.0000 (   872 PWs)   bands (ev):

     0.3152  11.5836  12.8989  14.1150  18.2375  20.2914

          k = 0.7000-0.3000 0.9000 (   875 PWs)   bands (ev):

     1.9765   8.7304  12.1158  12.6183  18.9262  22.4858

          k = 0.6000-0.2000 0.8000 (   872 PWs)   bands (ev):

     4.1212   5.8476  11.0816  12.7867  19.4673  24.0375

          k = 0.5000-0.1000 0.7000 (   876 PWs)   bands (ev):

     3.3618   6.7212  10.4119  13.6589  20.3881  23.3376

          k = 0.4000 0.0000 0.6000 (   882 PWs)   bands (ev):

     1.3686   9.2508  10.7385  15.0323  21.6980  22.4798

          k = 0.8000-0.2000 1.0000 (   884 PWs)   bands (ev):

     2.7481   9.7213  10.5842  12.0310  17.2638  19.4192

          k = 0.7000-0.1000 0.9000 (   883 PWs)   bands (ev):

     4.6766   7.9736   8.4638  11.7604  18.2915  21.9430

          k = 0.6000 0.0000 0.8000 (   875 PWs)   bands (ev):

     5.4806   6.5912   8.0370  12.4439  19.1612  25.3105

          k =-0.2000-1.0000 0.0000 (   880 PWs)   bands (ev):

     5.2656   6.5938  10.2507  11.6907  16.9368  19.1166

          k = 0.6000-0.2000 1.0000 (   882 PWs)   bands (ev):

     3.7817   8.2527   9.6511  10.8880  21.5645  22.9178

          k = 0.5000-0.1000 0.9000 (   880 PWs)   bands (ev):

     5.9196   6.1506   9.4500  10.0858  22.5333  22.9800

          k =-0.4000-1.0000 0.0000 (   880 PWs)   bands (ev):

     6.2595   7.5837   7.9201   9.5200  21.2478  22.8155

     the Fermi energy is     7.9429 ev

!    total energy              =     -39.50204811 Ry

     total all-electron energy =      -485.644828 Ry
     estimated scf accuracy    <          4.6E-09 Ry
     smearing contrib. (-TS)   =      -0.00106235 Ry
     internal energy E=F+TS    =     -39.50098576 Ry

     The total energy is F=E-TS. E is the sum of the following terms:
     one-electron contribution =       3.15226431 Ry
     hartree contribution      =       0.00564703 Ry
     xc contribution           =      -2.58736458 Ry
     ewald contribution        =      -5.39289795 Ry
     one-center paw contrib.   =     -34.67863456 Ry

     convergence has been achieved in   4 iterations

     Forces acting on atoms (cartesian axes, Ry/au):

     atom    1 type  1   force =     0.00000000    0.00000000    0.00000000

     Total force =     0.000000     Total SCF correction =     0.000000


     Computing stress (Cartesian axis) and pressure

          total   stress  (Ry/bohr**3)                   (kbar)     P=       -4.88
  -0.00003318  -0.00000000  -0.00000000           -4.88       -0.00       -0.00
  -0.00000000  -0.00003318   0.00000000           -0.00       -4.88        0.00
  -0.00000000   0.00000000  -0.00003318           -0.00        0.00       -4.88


     Writing output data file ./Al.save/

     init_run     :      2.68s CPU      0.70s WALL (       1 calls)
     electrons    :     44.66s CPU      5.29s WALL (       1 calls)
     forces       :      0.56s CPU      0.06s WALL (       1 calls)
     stress       :      2.53s CPU      0.41s WALL (       1 calls)

     Called by init_run:
     wfcinit      :      1.68s CPU      0.27s WALL (       1 calls)
     potinit      :      0.10s CPU      0.11s WALL (       1 calls)
     hinit0       :      0.79s CPU      0.28s WALL (       1 calls)

     Called by electrons:
     c_bands      :     34.41s CPU      3.96s WALL (       5 calls)
     sum_band     :      6.07s CPU      0.72s WALL (       5 calls)
     v_of_rho     :      0.32s CPU      0.05s WALL (       5 calls)
     newd         :      0.11s CPU      0.05s WALL (       5 calls)
     PAW_pot      :      3.83s CPU      0.63s WALL (       5 calls)
     mix_rho      :      0.03s CPU      0.00s WALL (       5 calls)

     Called by c_bands:
     init_us_2    :      1.69s CPU      0.20s WALL (     611 calls)
     cegterg      :     32.45s CPU      3.74s WALL (     235 calls)

     Called by *egterg:
     cdiaghg      :      0.68s CPU      0.08s WALL (     978 calls)
     h_psi        :     29.40s CPU      3.47s WALL (    1072 calls)
     s_psi        :      0.81s CPU      0.09s WALL (    1072 calls)
     g_psi        :      0.14s CPU      0.01s WALL (     790 calls)

     Called by h_psi:
     h_psi:calbec :      0.67s CPU      0.08s WALL (    1072 calls)
     vloc_psi     :     27.65s CPU      3.26s WALL (    1072 calls)
     add_vuspsi   :      0.86s CPU      0.10s WALL (    1072 calls)

     General routines
     calbec       :      0.95s CPU      0.11s WALL (    1542 calls)
     fft          :      0.29s CPU      0.04s WALL (      81 calls)
     ffts         :      0.02s CPU      0.00s WALL (       5 calls)
     fftw         :     29.74s CPU      3.52s WALL (   10032 calls)

     Parallel routines

     PWSCF        :     51.17s CPU      6.63s WALL


   This run was terminated on:  10:16:19  24Feb2022            

=------------------------------------------------------------------------------=
   JOB DONE.
=------------------------------------------------------------------------------=
