
     Program PWSCF v.6.7MaX starts on 24Feb2022 at 10:16: 6 

     This program is part of the open-source Quantum ESPRESSO suite
     for quantum simulation of materials; please cite
         "P. Giannozzi et al., J. Phys.:Condens. Matter 21 395502 (2009);
         "P. Giannozzi et al., J. Phys.:Condens. Matter 29 465901 (2017);
          URL http://www.quantum-espresso.org", 
     in publications or presentations arising from this work. More details at
     http://www.quantum-espresso.org/quote

     Parallel version (MPI), running on     1 processors

     MPI processes distributed on     1 nodes
     Waiting for input...
     Reading input from standard input
Warning: card &CELL ignored
Warning: card 	CELL_DYNAMICS = 'BFGS' ignored
Warning: card / ignored

     Current dimensions of program PWSCF are:
     Max number of different atomic species (ntypx) = 10
     Max number of k-points (npk) =  40000
     Max angular momentum in pseudopotentials (lmaxx) =  3
     file Al.pbe-n-kjpaw_psl.1.0.0.UPF: wavefunction(s)  3S 3P renormalized

     Subspace diagonalization in iterative solution of the eigenvalue problem:
     a serial algorithm will be used


     G-vector sticks info
     --------------------
     sticks:   dense  smooth     PW     G-vecs:    dense   smooth      PW
     Sum         499     499    151                 6975     6975    1243



     bravais-lattice index     =            2
     lattice parameter (alat)  =       7.6438  a.u.
     unit-cell volume          =     111.6524 (a.u.)^3
     number of atoms/cell      =            1
     number of atomic types    =            1
     number of electrons       =         3.00
     number of Kohn-Sham states=            6
     kinetic-energy cutoff     =      60.0000  Ry
     charge density cutoff     =     240.0000  Ry
     scf convergence threshold =      1.0E-08
     mixing beta               =       0.7000
     number of iterations used =            8  plain     mixing
     Exchange-correlation= SLA  PW   PBX  PBC
                           (   1   4   3   4   0   0   0)

     celldm(1)=   7.643800  celldm(2)=   0.000000  celldm(3)=   0.000000
     celldm(4)=   0.000000  celldm(5)=   0.000000  celldm(6)=   0.000000

     crystal axes: (cart. coord. in units of alat)
               a(1) = (  -0.500000   0.000000   0.500000 )  
               a(2) = (   0.000000   0.500000   0.500000 )  
               a(3) = (  -0.500000   0.500000   0.000000 )  

     reciprocal axes: (cart. coord. in units 2 pi/alat)
               b(1) = ( -1.000000 -1.000000  1.000000 )  
               b(2) = (  1.000000  1.000000  1.000000 )  
               b(3) = ( -1.000000  1.000000 -1.000000 )  


     PseudoPot. # 1 for Al read from file:
     ./Al.pbe-n-kjpaw_psl.1.0.0.UPF
     MD5 check sum: 502b6b27b9c6270cab5dd1084b96fa6d
     Pseudo is Projector augmented-wave + core cor, Zval =  3.0
     Generated using &quot;atomic&quot; code by A. Dal Corso  v.6.3
     Shape of augmentation charge: PSQ
     Using radial grid of 1135 points,  6 beta functions with: 
                l(1) =   0
                l(2) =   0
                l(3) =   1
                l(4) =   1
                l(5) =   2
                l(6) =   2
     Q(r) pseudized with 0 coefficients 


     atomic species   valence    mass     pseudopotential
        Al             3.00    26.98100     Al( 1.00)

     48 Sym. Ops., with inversion, found



   Cartesian axes

     site n.     atom                  positions (alat units)
         1           Al  tau(   1) = (   0.0000000   0.0000000   0.0000000  )

     number of k points=    47  Methfessel-Paxton smearing, width (Ry)=  0.0500
                       cart. coord. in units 2pi/alat
        k(    1) = (   0.0000000   0.0000000   0.0000000), wk =   0.0020000
        k(    2) = (  -0.1000000   0.1000000  -0.1000000), wk =   0.0160000
        k(    3) = (  -0.2000000   0.2000000  -0.2000000), wk =   0.0160000
        k(    4) = (  -0.3000000   0.3000000  -0.3000000), wk =   0.0160000
        k(    5) = (  -0.4000000   0.4000000  -0.4000000), wk =   0.0160000
        k(    6) = (   0.5000000  -0.5000000   0.5000000), wk =   0.0080000
        k(    7) = (   0.0000000   0.2000000   0.0000000), wk =   0.0120000
        k(    8) = (  -0.1000000   0.3000000  -0.1000000), wk =   0.0480000
        k(    9) = (  -0.2000000   0.4000000  -0.2000000), wk =   0.0480000
        k(   10) = (  -0.3000000   0.5000000  -0.3000000), wk =   0.0480000
        k(   11) = (   0.6000000  -0.4000000   0.6000000), wk =   0.0480000
        k(   12) = (   0.5000000  -0.3000000   0.5000000), wk =   0.0480000
        k(   13) = (   0.4000000  -0.2000000   0.4000000), wk =   0.0480000
        k(   14) = (   0.3000000  -0.1000000   0.3000000), wk =   0.0480000
        k(   15) = (   0.2000000   0.0000000   0.2000000), wk =   0.0240000
        k(   16) = (   0.0000000   0.4000000   0.0000000), wk =   0.0120000
        k(   17) = (  -0.1000000   0.5000000  -0.1000000), wk =   0.0480000
        k(   18) = (  -0.2000000   0.6000000  -0.2000000), wk =   0.0480000
        k(   19) = (   0.7000000  -0.3000000   0.7000000), wk =   0.0480000
        k(   20) = (   0.6000000  -0.2000000   0.6000000), wk =   0.0480000
        k(   21) = (   0.5000000  -0.1000000   0.5000000), wk =   0.0480000
        k(   22) = (   0.4000000   0.0000000   0.4000000), wk =   0.0240000
        k(   23) = (   0.0000000   0.6000000   0.0000000), wk =   0.0120000
        k(   24) = (  -0.1000000   0.7000000  -0.1000000), wk =   0.0480000
        k(   25) = (   0.8000000  -0.2000000   0.8000000), wk =   0.0480000
        k(   26) = (   0.7000000  -0.1000000   0.7000000), wk =   0.0480000
        k(   27) = (   0.6000000  -0.0000000   0.6000000), wk =   0.0240000
        k(   28) = (   0.0000000   0.8000000   0.0000000), wk =   0.0120000
        k(   29) = (   0.9000000  -0.1000000   0.9000000), wk =   0.0480000
        k(   30) = (   0.8000000   0.0000000   0.8000000), wk =   0.0240000
        k(   31) = (   0.0000000  -1.0000000   0.0000000), wk =   0.0060000
        k(   32) = (  -0.2000000   0.4000000   0.0000000), wk =   0.0480000
        k(   33) = (  -0.3000000   0.5000000  -0.1000000), wk =   0.0960000
        k(   34) = (   0.6000000  -0.4000000   0.8000000), wk =   0.0960000
        k(   35) = (   0.5000000  -0.3000000   0.7000000), wk =   0.0480000
        k(   36) = (  -0.2000000   0.6000000   0.0000000), wk =   0.0480000
        k(   37) = (   0.7000000  -0.3000000   0.9000000), wk =   0.0960000
        k(   38) = (   0.6000000  -0.2000000   0.8000000), wk =   0.0960000
        k(   39) = (   0.5000000  -0.1000000   0.7000000), wk =   0.0960000
        k(   40) = (   0.4000000   0.0000000   0.6000000), wk =   0.0480000
        k(   41) = (   0.8000000  -0.2000000   1.0000000), wk =   0.0480000
        k(   42) = (   0.7000000  -0.1000000   0.9000000), wk =   0.0960000
        k(   43) = (   0.6000000   0.0000000   0.8000000), wk =   0.0480000
        k(   44) = (  -0.2000000  -1.0000000   0.0000000), wk =   0.0240000
        k(   45) = (   0.6000000  -0.2000000   1.0000000), wk =   0.0480000
        k(   46) = (   0.5000000  -0.1000000   0.9000000), wk =   0.0480000
        k(   47) = (  -0.4000000  -1.0000000   0.0000000), wk =   0.0240000

     Dense  grid:     6975 G-vectors     FFT dimensions: (  27,  27,  27)

     Estimated max dynamical RAM per process >      30.98 MB

     Initial potential from superposition of free atoms

     starting charge    2.99771, renormalised to    3.00000
     Starting wfcs are    4 randomized atomic wfcs +    2 random wfcs
     Checking if some PAW data can be deallocated... 

     total cpu time spent up to now is        0.8 secs

     Self-consistent Calculation

     iteration #  1     ecut=    60.00 Ry     beta= 0.70
     Davidson diagonalization with overlap
     ethr =  1.00E-02,  avg # of iterations =  6.2

     Threshold (ethr) on eigenvalues was too large:
     Diagonalizing with lowered threshold

     Davidson diagonalization with overlap
     ethr =  1.85E-04,  avg # of iterations =  3.0

     total cpu time spent up to now is        3.2 secs

     total energy              =     -39.50209067 Ry
     estimated scf accuracy    <       0.00545143 Ry

     iteration #  2     ecut=    60.00 Ry     beta= 0.70
     Davidson diagonalization with overlap
     ethr =  1.82E-04,  avg # of iterations =  1.0

     total cpu time spent up to now is        4.0 secs

     total energy              =     -39.50204662 Ry
     estimated scf accuracy    <       0.00039681 Ry

     iteration #  3     ecut=    60.00 Ry     beta= 0.70
     Davidson diagonalization with overlap
     ethr =  1.32E-05,  avg # of iterations =  2.9

     total cpu time spent up to now is        5.0 secs

     total energy              =     -39.50205599 Ry
     estimated scf accuracy    <       0.00000053 Ry

     iteration #  4     ecut=    60.00 Ry     beta= 0.70
     Davidson diagonalization with overlap
     ethr =  1.78E-08,  avg # of iterations =  3.8

     total cpu time spent up to now is        6.1 secs

     End of self-consistent calculation

          k = 0.0000 0.0000 0.0000 (   893 PWs)   bands (ev):

    -3.2424  20.4708  20.4709  21.9488  21.9489  21.9489

          k =-0.1000 0.1000-0.1000 (   887 PWs)   bands (ev):

    -2.9710  17.1931  19.7480  19.7480  22.6274  23.0746

          k =-0.2000 0.2000-0.2000 (   887 PWs)   bands (ev):

    -2.1601  13.2036  18.9925  18.9925  22.3465  23.4772

          k =-0.3000 0.3000-0.3000 (   887 PWs)   bands (ev):

    -0.8189   9.5138  18.6430  18.6430  21.7364  21.7366

          k =-0.4000 0.4000-0.4000 (   869 PWs)   bands (ev):

     1.0381   6.2318  18.7386  18.7386  20.2942  20.2942

          k = 0.5000-0.5000 0.5000 (   886 PWs)   bands (ev):

     3.2930   3.5000  19.2600  19.2600  19.3182  19.3182

          k = 0.0000 0.2000 0.0000 (   889 PWs)   bands (ev):

    -2.8807  18.3533  18.3533  18.6465  21.1591  23.7761

          k =-0.1000 0.3000-0.1000 (   889 PWs)   bands (ev):

    -2.2500  14.6710  17.3790  18.7840  21.1854  21.9957

          k =-0.2000 0.4000-0.2000 (   876 PWs)   bands (ev):

    -1.0862  10.9060  16.8560  18.4540  19.1778  24.0276

          k =-0.3000 0.5000-0.3000 (   872 PWs)   bands (ev):

     0.5979   7.4974  16.7906  17.4957  18.4670  22.9910

          k = 0.6000-0.4000 0.6000 (   871 PWs)   bands (ev):

     2.7809   4.5239  16.3008  17.1851  18.9068  21.8585

          k = 0.5000-0.3000 0.5000 (   872 PWs)   bands (ev):

     2.0005   5.4615  15.5778  18.0402  19.8222  21.1638

          k = 0.4000-0.2000 0.4000 (   879 PWs)   bands (ev):

    -0.0202   8.5824  15.3388  19.3451  20.9208  21.1915

          k = 0.3000-0.1000 0.3000 (   883 PWs)   bands (ev):

    -1.5327  12.0996  15.6016  20.8861  21.2734  22.9545

          k = 0.2000 0.0000 0.2000 (   895 PWs)   bands (ev):

    -2.5199  15.5946  16.6754  21.1757  22.2620  23.4594

          k = 0.0000 0.4000 0.0000 (   885 PWs)   bands (ev):

    -1.8012  16.2275  16.2275  16.3135  18.6113  19.6183

          k =-0.1000 0.5000-0.1000 (   870 PWs)   bands (ev):

    -0.8191  12.7027  15.5401  16.2659  16.9672  20.3436

          k =-0.2000 0.6000-0.2000 (   886 PWs)   bands (ev):

     0.6851   9.2329  14.4159  15.3154  16.9774  22.8550

          k = 0.7000-0.3000 0.7000 (   875 PWs)   bands (ev):

     2.6924   6.1382  13.0292  15.5530  17.3070  24.8678

          k = 0.6000-0.2000 0.6000 (   877 PWs)   bands (ev):

     3.4708   5.1953  12.1387  16.2537  18.1041  24.0449

          k = 0.5000-0.1000 0.5000 (   876 PWs)   bands (ev):

     1.3008   8.0992  11.7891  17.4170  19.3728  23.6423

          k = 0.4000 0.0000 0.4000 (   871 PWs)   bands (ev):

    -0.3747  10.9496  12.4280  19.0342  21.0619  23.2753

          k = 0.0000 0.6000 0.0000 (   866 PWs)   bands (ev):

    -0.0211  13.7558  14.5585  14.6928  14.6928  18.1901

          k =-0.1000 0.7000-0.1000 (   873 PWs)   bands (ev):

     1.2974  11.3188  11.7547  14.3105  15.6121  19.1729

          k = 0.8000-0.2000 0.8000 (   879 PWs)   bands (ev):

     3.1156   8.2098  10.1481  14.3912  15.9748  22.0170

          k = 0.7000-0.1000 0.7000 (   879 PWs)   bands (ev):

     5.2859   5.5461   9.1131  14.9352  16.6550  25.3930

          k = 0.6000-0.0000 0.6000 (   877 PWs)   bands (ev):

     3.1279   7.6158   9.1044  15.9437  17.7967  26.7013

          k = 0.0000 0.8000 0.0000 (   886 PWs)   bands (ev):

     2.4228   9.4392  13.4905  13.7717  13.7717  17.2415

          k = 0.9000-0.1000 0.9000 (   873 PWs)   bands (ev):

     4.0203   7.7100  10.7253  13.6962  14.9276  18.5556

          k = 0.8000 0.0000 0.8000 (   870 PWs)   bands (ev):

     5.6216   6.9308   7.9601  14.0835  15.6316  21.7263

          k = 0.0000-1.0000 0.0000 (   846 PWs)   bands (ev):

     4.9586   6.2766  13.1328  13.4649  13.4649  16.9121

          k =-0.2000 0.4000 0.0000 (   877 PWs)   bands (ev):

    -1.4432  13.2829  14.5740  18.8986  19.8555  21.6645

          k =-0.3000 0.5000-0.1000 (   876 PWs)   bands (ev):

    -0.1089  10.1068  13.7121  16.9220  20.1784  23.2270

          k = 0.6000-0.4000 0.8000 (   877 PWs)   bands (ev):

     1.7378   6.8928  13.7397  15.4026  20.3742  22.0510

          k = 0.5000-0.3000 0.7000 (   868 PWs)   bands (ev):

     3.9623   4.2026  14.1287  14.5211  20.8145  21.1769

          k =-0.2000 0.6000 0.0000 (   872 PWs)   bands (ev):

     0.3324  11.6189  12.9412  14.1617  18.2854  20.3547

          k = 0.7000-0.3000 0.9000 (   875 PWs)   bands (ev):

     1.9968   8.7623  12.1510  12.6669  18.9782  22.5500

          k = 0.6000-0.2000 0.8000 (   870 PWs)   bands (ev):

     4.1449   5.8754  11.1190  12.8312  19.5217  24.1006

          k = 0.5000-0.1000 0.7000 (   876 PWs)   bands (ev):

     3.3845   6.7499  10.4495  13.7040  20.4448  23.3977

          k = 0.4000 0.0000 0.6000 (   882 PWs)   bands (ev):

     1.3877   9.2820  10.7789  15.0796  21.7579  22.5353

          k = 0.8000-0.2000 1.0000 (   872 PWs)   bands (ev):

     2.7697   9.7555  10.6177  12.0767  17.3101  19.4809

          k = 0.7000-0.1000 0.9000 (   874 PWs)   bands (ev):

     4.7012   8.0016   8.5001  11.8032  18.3423  22.0061

          k = 0.6000 0.0000 0.8000 (   875 PWs)   bands (ev):

     5.5064   6.6178   8.0727  12.4870  19.2149  25.3779

          k =-0.2000-1.0000 0.0000 (   874 PWs)   bands (ev):

     5.2900   6.6249  10.2836  11.7352  16.9825  19.1778

          k = 0.6000-0.2000 1.0000 (   878 PWs)   bands (ev):

     3.8050   8.2821   9.6860  10.9316  21.6188  22.9854

          k = 0.5000-0.1000 0.9000 (   880 PWs)   bands (ev):

     5.9437   6.1805   9.4797  10.1317  22.5948  23.0378

          k =-0.4000-1.0000 0.0000 (   880 PWs)   bands (ev):

     6.2856   7.6140   7.9489   9.5637  21.3016  22.8826

     the Fermi energy is     7.9740 ev

!    total energy              =     -39.50205675 Ry

     total all-electron energy =      -485.644837 Ry
     estimated scf accuracy    <          2.6E-09 Ry
     smearing contrib. (-TS)   =      -0.00105936 Ry
     internal energy E=F+TS    =     -39.50099739 Ry

     The total energy is F=E-TS. E is the sum of the following terms:
     one-electron contribution =       3.15953249 Ry
     hartree contribution      =       0.00566184 Ry
     xc contribution           =      -2.58897945 Ry
     ewald contribution        =      -5.39833050 Ry
     one-center paw contrib.   =     -34.67888177 Ry

     convergence has been achieved in   4 iterations

     Forces acting on atoms (cartesian axes, Ry/au):

     atom    1 type  1   force =     0.00000000    0.00000000    0.00000000

     Total force =     0.000000     Total SCF correction =     0.000000


     Computing stress (Cartesian axis) and pressure

          total   stress  (Ry/bohr**3)                   (kbar)     P=       -2.64
  -0.00001792   0.00000000   0.00000000           -2.64        0.00        0.00
   0.00000000  -0.00001792  -0.00000000            0.00       -2.64       -0.00
   0.00000000  -0.00000000  -0.00001792            0.00       -0.00       -2.64


     Writing output data file ./Al.save/

     init_run     :      2.86s CPU      0.69s WALL (       1 calls)
     electrons    :     46.17s CPU      5.27s WALL (       1 calls)
     forces       :      0.49s CPU      0.06s WALL (       1 calls)
     stress       :      2.54s CPU      0.40s WALL (       1 calls)

     Called by init_run:
     wfcinit      :      1.75s CPU      0.27s WALL (       1 calls)
     potinit      :      0.11s CPU      0.11s WALL (       1 calls)
     hinit0       :      0.80s CPU      0.27s WALL (       1 calls)

     Called by electrons:
     c_bands      :     35.54s CPU      3.96s WALL (       5 calls)
     sum_band     :      6.25s CPU      0.70s WALL (       5 calls)
     v_of_rho     :      0.34s CPU      0.05s WALL (       5 calls)
     newd         :      0.14s CPU      0.05s WALL (       5 calls)
     PAW_pot      :      3.93s CPU      0.63s WALL (       5 calls)
     mix_rho      :      0.03s CPU      0.00s WALL (       5 calls)

     Called by c_bands:
     init_us_2    :      1.72s CPU      0.20s WALL (     611 calls)
     cegterg      :     33.48s CPU      3.74s WALL (     235 calls)

     Called by *egterg:
     cdiaghg      :      0.73s CPU      0.08s WALL (     983 calls)
     h_psi        :     30.29s CPU      3.47s WALL (    1077 calls)
     s_psi        :      0.84s CPU      0.09s WALL (    1077 calls)
     g_psi        :      0.15s CPU      0.01s WALL (     795 calls)

     Called by h_psi:
     h_psi:calbec :      0.62s CPU      0.07s WALL (    1077 calls)
     vloc_psi     :     28.54s CPU      3.28s WALL (    1077 calls)
     add_vuspsi   :      0.90s CPU      0.10s WALL (    1077 calls)

     General routines
     calbec       :      0.85s CPU      0.10s WALL (    1547 calls)
     fft          :      0.27s CPU      0.04s WALL (      81 calls)
     ffts         :      0.03s CPU      0.00s WALL (       5 calls)
     fftw         :     30.82s CPU      3.52s WALL (   10054 calls)

     Parallel routines

     PWSCF        :     52.67s CPU      6.60s WALL


   This run was terminated on:  10:16:12  24Feb2022            

=------------------------------------------------------------------------------=
   JOB DONE.
=------------------------------------------------------------------------------=
