
     Program PWSCF v.6.7MaX starts on 24Feb2022 at 10:16:33 

     This program is part of the open-source Quantum ESPRESSO suite
     for quantum simulation of materials; please cite
         "P. Giannozzi et al., J. Phys.:Condens. Matter 21 395502 (2009);
         "P. Giannozzi et al., J. Phys.:Condens. Matter 29 465901 (2017);
          URL http://www.quantum-espresso.org", 
     in publications or presentations arising from this work. More details at
     http://www.quantum-espresso.org/quote

     Parallel version (MPI), running on     1 processors

     MPI processes distributed on     1 nodes
     Waiting for input...
     Reading input from standard input
Warning: card &CELL ignored
Warning: card 	CELL_DYNAMICS = 'BFGS' ignored
Warning: card / ignored

     Current dimensions of program PWSCF are:
     Max number of different atomic species (ntypx) = 10
     Max number of k-points (npk) =  40000
     Max angular momentum in pseudopotentials (lmaxx) =  3
     file Al.pbe-n-kjpaw_psl.1.0.0.UPF: wavefunction(s)  3S 3P renormalized

     Subspace diagonalization in iterative solution of the eigenvalue problem:
     a serial algorithm will be used


     G-vector sticks info
     --------------------
     sticks:   dense  smooth     PW     G-vecs:    dense   smooth      PW
     Sum         499     499    163                 7119     7119    1291



     bravais-lattice index     =            2
     lattice parameter (alat)  =       7.6744  a.u.
     unit-cell volume          =     112.9987 (a.u.)^3
     number of atoms/cell      =            1
     number of atomic types    =            1
     number of electrons       =         3.00
     number of Kohn-Sham states=            6
     kinetic-energy cutoff     =      60.0000  Ry
     charge density cutoff     =     240.0000  Ry
     scf convergence threshold =      1.0E-08
     mixing beta               =       0.7000
     number of iterations used =            8  plain     mixing
     Exchange-correlation= SLA  PW   PBX  PBC
                           (   1   4   3   4   0   0   0)

     celldm(1)=   7.674400  celldm(2)=   0.000000  celldm(3)=   0.000000
     celldm(4)=   0.000000  celldm(5)=   0.000000  celldm(6)=   0.000000

     crystal axes: (cart. coord. in units of alat)
               a(1) = (  -0.500000   0.000000   0.500000 )  
               a(2) = (   0.000000   0.500000   0.500000 )  
               a(3) = (  -0.500000   0.500000   0.000000 )  

     reciprocal axes: (cart. coord. in units 2 pi/alat)
               b(1) = ( -1.000000 -1.000000  1.000000 )  
               b(2) = (  1.000000  1.000000  1.000000 )  
               b(3) = ( -1.000000  1.000000 -1.000000 )  


     PseudoPot. # 1 for Al read from file:
     ./Al.pbe-n-kjpaw_psl.1.0.0.UPF
     MD5 check sum: 502b6b27b9c6270cab5dd1084b96fa6d
     Pseudo is Projector augmented-wave + core cor, Zval =  3.0
     Generated using &quot;atomic&quot; code by A. Dal Corso  v.6.3
     Shape of augmentation charge: PSQ
     Using radial grid of 1135 points,  6 beta functions with: 
                l(1) =   0
                l(2) =   0
                l(3) =   1
                l(4) =   1
                l(5) =   2
                l(6) =   2
     Q(r) pseudized with 0 coefficients 


     atomic species   valence    mass     pseudopotential
        Al             3.00    26.98100     Al( 1.00)

     48 Sym. Ops., with inversion, found



   Cartesian axes

     site n.     atom                  positions (alat units)
         1           Al  tau(   1) = (   0.0000000   0.0000000   0.0000000  )

     number of k points=    47  Methfessel-Paxton smearing, width (Ry)=  0.0500
                       cart. coord. in units 2pi/alat
        k(    1) = (   0.0000000   0.0000000   0.0000000), wk =   0.0020000
        k(    2) = (  -0.1000000   0.1000000  -0.1000000), wk =   0.0160000
        k(    3) = (  -0.2000000   0.2000000  -0.2000000), wk =   0.0160000
        k(    4) = (  -0.3000000   0.3000000  -0.3000000), wk =   0.0160000
        k(    5) = (  -0.4000000   0.4000000  -0.4000000), wk =   0.0160000
        k(    6) = (   0.5000000  -0.5000000   0.5000000), wk =   0.0080000
        k(    7) = (   0.0000000   0.2000000   0.0000000), wk =   0.0120000
        k(    8) = (  -0.1000000   0.3000000  -0.1000000), wk =   0.0480000
        k(    9) = (  -0.2000000   0.4000000  -0.2000000), wk =   0.0480000
        k(   10) = (  -0.3000000   0.5000000  -0.3000000), wk =   0.0480000
        k(   11) = (   0.6000000  -0.4000000   0.6000000), wk =   0.0480000
        k(   12) = (   0.5000000  -0.3000000   0.5000000), wk =   0.0480000
        k(   13) = (   0.4000000  -0.2000000   0.4000000), wk =   0.0480000
        k(   14) = (   0.3000000  -0.1000000   0.3000000), wk =   0.0480000
        k(   15) = (   0.2000000   0.0000000   0.2000000), wk =   0.0240000
        k(   16) = (   0.0000000   0.4000000   0.0000000), wk =   0.0120000
        k(   17) = (  -0.1000000   0.5000000  -0.1000000), wk =   0.0480000
        k(   18) = (  -0.2000000   0.6000000  -0.2000000), wk =   0.0480000
        k(   19) = (   0.7000000  -0.3000000   0.7000000), wk =   0.0480000
        k(   20) = (   0.6000000  -0.2000000   0.6000000), wk =   0.0480000
        k(   21) = (   0.5000000  -0.1000000   0.5000000), wk =   0.0480000
        k(   22) = (   0.4000000   0.0000000   0.4000000), wk =   0.0240000
        k(   23) = (   0.0000000   0.6000000   0.0000000), wk =   0.0120000
        k(   24) = (  -0.1000000   0.7000000  -0.1000000), wk =   0.0480000
        k(   25) = (   0.8000000  -0.2000000   0.8000000), wk =   0.0480000
        k(   26) = (   0.7000000  -0.1000000   0.7000000), wk =   0.0480000
        k(   27) = (   0.6000000  -0.0000000   0.6000000), wk =   0.0240000
        k(   28) = (   0.0000000   0.8000000   0.0000000), wk =   0.0120000
        k(   29) = (   0.9000000  -0.1000000   0.9000000), wk =   0.0480000
        k(   30) = (   0.8000000   0.0000000   0.8000000), wk =   0.0240000
        k(   31) = (   0.0000000  -1.0000000   0.0000000), wk =   0.0060000
        k(   32) = (  -0.2000000   0.4000000   0.0000000), wk =   0.0480000
        k(   33) = (  -0.3000000   0.5000000  -0.1000000), wk =   0.0960000
        k(   34) = (   0.6000000  -0.4000000   0.8000000), wk =   0.0960000
        k(   35) = (   0.5000000  -0.3000000   0.7000000), wk =   0.0480000
        k(   36) = (  -0.2000000   0.6000000   0.0000000), wk =   0.0480000
        k(   37) = (   0.7000000  -0.3000000   0.9000000), wk =   0.0960000
        k(   38) = (   0.6000000  -0.2000000   0.8000000), wk =   0.0960000
        k(   39) = (   0.5000000  -0.1000000   0.7000000), wk =   0.0960000
        k(   40) = (   0.4000000   0.0000000   0.6000000), wk =   0.0480000
        k(   41) = (   0.8000000  -0.2000000   1.0000000), wk =   0.0480000
        k(   42) = (   0.7000000  -0.1000000   0.9000000), wk =   0.0960000
        k(   43) = (   0.6000000   0.0000000   0.8000000), wk =   0.0480000
        k(   44) = (  -0.2000000  -1.0000000   0.0000000), wk =   0.0240000
        k(   45) = (   0.6000000  -0.2000000   1.0000000), wk =   0.0480000
        k(   46) = (   0.5000000  -0.1000000   0.9000000), wk =   0.0480000
        k(   47) = (  -0.4000000  -1.0000000   0.0000000), wk =   0.0240000

     Dense  grid:     7119 G-vectors     FFT dimensions: (  27,  27,  27)

     Estimated max dynamical RAM per process >      31.53 MB

     Initial potential from superposition of free atoms

     starting charge    2.99771, renormalised to    3.00000
     Starting wfcs are    4 randomized atomic wfcs +    2 random wfcs
     Checking if some PAW data can be deallocated... 

     total cpu time spent up to now is        0.8 secs

     Self-consistent Calculation

     iteration #  1     ecut=    60.00 Ry     beta= 0.70
     Davidson diagonalization with overlap
     ethr =  1.00E-02,  avg # of iterations =  6.0

     Threshold (ethr) on eigenvalues was too large:
     Diagonalizing with lowered threshold

     Davidson diagonalization with overlap
     ethr =  1.85E-04,  avg # of iterations =  3.4

     total cpu time spent up to now is        3.2 secs

     total energy              =     -39.50202633 Ry
     estimated scf accuracy    <       0.00545538 Ry

     iteration #  2     ecut=    60.00 Ry     beta= 0.70
     Davidson diagonalization with overlap
     ethr =  1.82E-04,  avg # of iterations =  1.0

     total cpu time spent up to now is        4.1 secs

     total energy              =     -39.50198249 Ry
     estimated scf accuracy    <       0.00039372 Ry

     iteration #  3     ecut=    60.00 Ry     beta= 0.70
     Davidson diagonalization with overlap
     ethr =  1.31E-05,  avg # of iterations =  2.7

     total cpu time spent up to now is        5.0 secs

     total energy              =     -39.50199140 Ry
     estimated scf accuracy    <       0.00000049 Ry

     iteration #  4     ecut=    60.00 Ry     beta= 0.70
     Davidson diagonalization with overlap
     ethr =  1.65E-08,  avg # of iterations =  3.5

     total cpu time spent up to now is        6.3 secs

     End of self-consistent calculation

          k = 0.0000 0.0000 0.0000 (   893 PWs)   bands (ev):

    -3.2828  20.2816  20.2816  21.6694  21.6694  21.6695

          k =-0.1000 0.1000-0.1000 (   899 PWs)   bands (ev):

    -3.0136  17.0059  19.5409  19.5409  22.3780  22.8069

          k =-0.2000 0.2000-0.2000 (   899 PWs)   bands (ev):

    -2.2091  13.0432  18.7824  18.7825  22.1068  23.2257

          k =-0.3000 0.3000-0.3000 (   890 PWs)   bands (ev):

    -0.8782   9.3788  18.4324  18.4324  21.5071  21.5071

          k =-0.4000 0.4000-0.4000 (   887 PWs)   bands (ev):

     0.9650   6.1196  18.5256  18.5256  20.0760  20.0761

          k = 0.5000-0.5000 0.5000 (   886 PWs)   bands (ev):

     3.2178   3.3930  19.0099  19.0099  19.1400  19.1400

          k = 0.0000 0.2000 0.0000 (   889 PWs)   bands (ev):

    -2.9239  18.1491  18.1491  18.4744  20.8845  23.5498

          k =-0.1000 0.3000-0.1000 (   898 PWs)   bands (ev):

    -2.2982  14.5019  17.1785  18.5875  20.9346  21.7693

          k =-0.2000 0.4000-0.2000 (   880 PWs)   bands (ev):

    -1.1434  10.7619  16.6577  18.2568  18.9598  23.7623

          k =-0.3000 0.5000-0.3000 (   890 PWs)   bands (ev):

     0.5280   7.3767  16.5920  17.3023  18.2551  22.7525

          k = 0.6000-0.4000 0.6000 (   889 PWs)   bands (ev):

     2.6962   4.4229  16.1117  16.9836  18.6947  21.6284

          k = 0.5000-0.3000 0.5000 (   884 PWs)   bands (ev):

     1.9206   5.3548  15.3923  17.8319  19.6044  20.9403

          k = 0.4000-0.2000 0.4000 (   891 PWs)   bands (ev):

    -0.0855   8.4544  15.1540  19.1234  20.7052  20.9651

          k = 0.3000-0.1000 0.3000 (   895 PWs)   bands (ev):

    -1.5864  11.9484  15.4135  20.6342  21.0770  22.7168

          k = 0.2000 0.0000 0.2000 (   907 PWs)   bands (ev):

    -2.5661  15.4254  16.4747  20.9807  21.9692  23.1986

          k = 0.0000 0.4000 0.0000 (   885 PWs)   bands (ev):

    -1.8529  16.0335  16.0335  16.1612  18.4086  19.3659

          k =-0.1000 0.5000-0.1000 (   879 PWs)   bands (ev):

    -0.8783  12.5488  15.3497  16.0876  16.7738  20.0988

          k =-0.2000 0.6000-0.2000 (   886 PWs)   bands (ev):

     0.6146   9.1012  14.2437  15.1260  16.7820  22.6027

          k = 0.7000-0.3000 0.7000 (   887 PWs)   bands (ev):

     2.6078   6.0270  12.8644  15.3618  17.1082  24.6171

          k = 0.6000-0.2000 0.6000 (   880 PWs)   bands (ev):

     3.3814   5.0900  11.9786  16.0577  17.8991  23.8010

          k = 0.5000-0.1000 0.5000 (   889 PWs)   bands (ev):

     1.2258   7.9766  11.6285  17.2126  19.1585  23.4058

          k = 0.4000 0.0000 0.4000 (   881 PWs)   bands (ev):

    -0.4373  10.8144  12.2549  18.8166  20.8360  23.0626

          k = 0.0000 0.6000 0.0000 (   882 PWs)   bands (ev):

    -0.0863  13.5905  14.4208  14.5072  14.5072  17.9446

          k =-0.1000 0.7000-0.1000 (   881 PWs)   bands (ev):

     1.2225  11.1824  11.5944  14.1269  15.4361  18.9349

          k = 0.8000-0.2000 0.8000 (   885 PWs)   bands (ev):

     3.0280   8.0876  10.0015  14.2070  15.7895  21.7703

          k = 0.7000-0.1000 0.7000 (   885 PWs)   bands (ev):

     5.1955   5.4294   8.9721  14.7475  16.4625  25.1265

          k = 0.6000-0.0000 0.6000 (   881 PWs)   bands (ev):

     3.0401   7.5039   8.9558  15.7494  17.5945  26.4606

          k = 0.0000 0.8000 0.0000 (   886 PWs)   bands (ev):

     2.3400   9.3029  13.3615  13.5912  13.5912  17.0043

          k = 0.9000-0.1000 0.9000 (   890 PWs)   bands (ev):

     3.9274   7.5850  10.5838  13.5160  14.7573  18.3221

          k = 0.8000 0.0000 0.8000 (   894 PWs)   bands (ev):

     5.5232   6.8137   7.8253  13.9010  15.4496  21.4816

          k = 0.0000-1.0000 0.0000 (   894 PWs)   bands (ev):

     4.8646   6.1552  13.0068  13.2861  13.2861  16.6780

          k =-0.2000 0.4000 0.0000 (   887 PWs)   bands (ev):

    -1.4977  13.1309  14.3869  18.6849  19.6577  21.4096

          k =-0.3000 0.5000-0.1000 (   882 PWs)   bands (ev):

    -0.1735   9.9701  13.5382  16.7234  19.9646  22.9729

          k = 0.6000-0.4000 0.8000 (   887 PWs)   bands (ev):

     1.6597   6.7767  13.5698  15.2124  20.1522  21.8193

          k = 0.5000-0.3000 0.7000 (   880 PWs)   bands (ev):

     3.8822   4.0910  13.9732  14.3202  20.5784  20.9617

          k =-0.2000 0.6000 0.0000 (   880 PWs)   bands (ev):

     0.2645  11.4793  12.7736  13.9775  18.0964  20.1046

          k = 0.7000-0.3000 0.9000 (   886 PWs)   bands (ev):

     1.9168   8.6359  12.0118  12.4749  18.7728  22.2966

          k = 0.6000-0.2000 0.8000 (   880 PWs)   bands (ev):

     4.0513   5.7658  10.9706  12.6555  19.3070  23.8515

          k = 0.5000-0.1000 0.7000 (   881 PWs)   bands (ev):

     3.2951   6.6366  10.3006  13.5257  20.2209  23.1605

          k = 0.4000 0.0000 0.6000 (   882 PWs)   bands (ev):

     1.3121   9.1587  10.6191  14.8928  21.5210  22.3156

          k = 0.8000-0.2000 1.0000 (   889 PWs)   bands (ev):

     2.6844   9.6203  10.4855  11.8963  17.1273  19.2370

          k = 0.7000-0.1000 0.9000 (   891 PWs)   bands (ev):

     4.6040   7.8910   8.3567  11.6346  18.1416  21.7568

          k = 0.6000 0.0000 0.8000 (   891 PWs)   bands (ev):

     5.4044   6.5128   7.9316  12.3168  19.0027  25.1097

          k =-0.2000-1.0000 0.0000 (   884 PWs)   bands (ev):

     5.1938   6.5020  10.1539  11.5597  16.8019  18.9362

          k = 0.6000-0.2000 1.0000 (   894 PWs)   bands (ev):

     3.7128   8.1658   9.5477  10.7602  21.4042  22.7187

          k = 0.5000-0.1000 0.9000 (   890 PWs)   bands (ev):

     5.8484   6.0624   9.3623   9.9508  22.3516  22.8094

          k =-0.4000-1.0000 0.0000 (   890 PWs)   bands (ev):

     6.1828   7.4938   7.8350   9.3916  21.0890  22.6176

     the Fermi energy is     7.8510 ev

!    total energy              =     -39.50199220 Ry

     total all-electron energy =      -485.644772 Ry
     estimated scf accuracy    <          6.4E-09 Ry
     smearing contrib. (-TS)   =      -0.00106989 Ry
     internal energy E=F+TS    =     -39.50092231 Ry

     The total energy is F=E-TS. E is the sum of the following terms:
     one-electron contribution =       3.13077855 Ry
     hartree contribution      =       0.00560967 Ry
     xc contribution           =      -2.58259113 Ry
     ewald contribution        =      -5.37680583 Ry
     one-center paw contrib.   =     -34.67791355 Ry

     convergence has been achieved in   4 iterations

     Forces acting on atoms (cartesian axes, Ry/au):

     atom    1 type  1   force =     0.00000000    0.00000000    0.00000000

     Total force =     0.000000     Total SCF correction =     0.000000


     Computing stress (Cartesian axis) and pressure

          total   stress  (Ry/bohr**3)                   (kbar)     P=      -11.36
  -0.00007723  -0.00000000  -0.00000000          -11.36       -0.00       -0.00
  -0.00000000  -0.00007723   0.00000000           -0.00      -11.36        0.00
  -0.00000000   0.00000000  -0.00007723           -0.00        0.00      -11.36


     Writing output data file ./Al.save/

     init_run     :      2.66s CPU      0.70s WALL (       1 calls)
     electrons    :     47.51s CPU      5.53s WALL (       1 calls)
     forces       :      0.58s CPU      0.06s WALL (       1 calls)
     stress       :      2.52s CPU      0.41s WALL (       1 calls)

     Called by init_run:
     wfcinit      :      1.66s CPU      0.27s WALL (       1 calls)
     potinit      :      0.10s CPU      0.11s WALL (       1 calls)
     hinit0       :      0.82s CPU      0.29s WALL (       1 calls)

     Called by electrons:
     c_bands      :     37.30s CPU      4.20s WALL (       5 calls)
     sum_band     :      6.23s CPU      0.73s WALL (       5 calls)
     v_of_rho     :      0.36s CPU      0.05s WALL (       5 calls)
     newd         :      0.07s CPU      0.04s WALL (       5 calls)
     PAW_pot      :      3.63s CPU      0.63s WALL (       5 calls)
     mix_rho      :      0.02s CPU      0.00s WALL (       5 calls)

     Called by c_bands:
     init_us_2    :      1.85s CPU      0.20s WALL (     611 calls)
     cegterg      :     35.28s CPU      3.97s WALL (     235 calls)

     Called by *egterg:
     cdiaghg      :      0.76s CPU      0.08s WALL (     972 calls)
     h_psi        :     31.47s CPU      3.65s WALL (    1066 calls)
     s_psi        :      1.01s CPU      0.12s WALL (    1066 calls)
     g_psi        :      0.14s CPU      0.01s WALL (     784 calls)

     Called by h_psi:
     h_psi:calbec :      2.30s CPU      0.29s WALL (    1066 calls)
     vloc_psi     :     28.05s CPU      3.24s WALL (    1066 calls)
     add_vuspsi   :      0.90s CPU      0.10s WALL (    1066 calls)

     General routines
     calbec       :      2.59s CPU      0.32s WALL (    1536 calls)
     fft          :      0.28s CPU      0.04s WALL (      81 calls)
     ffts         :      0.02s CPU      0.00s WALL (       5 calls)
     fftw         :     30.39s CPU      3.50s WALL (    9986 calls)

     Parallel routines

     PWSCF        :     53.95s CPU      6.88s WALL


   This run was terminated on:  10:16:40  24Feb2022            

=------------------------------------------------------------------------------=
   JOB DONE.
=------------------------------------------------------------------------------=
