
     Program PWSCF v.6.7MaX starts on 24Feb2022 at 10:15:45 

     This program is part of the open-source Quantum ESPRESSO suite
     for quantum simulation of materials; please cite
         "P. Giannozzi et al., J. Phys.:Condens. Matter 21 395502 (2009);
         "P. Giannozzi et al., J. Phys.:Condens. Matter 29 465901 (2017);
          URL http://www.quantum-espresso.org", 
     in publications or presentations arising from this work. More details at
     http://www.quantum-espresso.org/quote

     Parallel version (MPI), running on     1 processors

     MPI processes distributed on     1 nodes
     Waiting for input...
     Reading input from standard input
Warning: card &CELL ignored
Warning: card 	CELL_DYNAMICS = 'BFGS' ignored
Warning: card / ignored

     Current dimensions of program PWSCF are:
     Max number of different atomic species (ntypx) = 10
     Max number of k-points (npk) =  40000
     Max angular momentum in pseudopotentials (lmaxx) =  3
     file Al.pbe-n-kjpaw_psl.1.0.0.UPF: wavefunction(s)  3S 3P renormalized

     Subspace diagonalization in iterative solution of the eigenvalue problem:
     a serial algorithm will be used


     G-vector sticks info
     --------------------
     sticks:   dense  smooth     PW     G-vecs:    dense   smooth      PW
     Sum         475     475    151                 6879     6879    1243



     bravais-lattice index     =            2
     lattice parameter (alat)  =       7.6209  a.u.
     unit-cell volume          =     110.6519 (a.u.)^3
     number of atoms/cell      =            1
     number of atomic types    =            1
     number of electrons       =         3.00
     number of Kohn-Sham states=            6
     kinetic-energy cutoff     =      60.0000  Ry
     charge density cutoff     =     240.0000  Ry
     scf convergence threshold =      1.0E-08
     mixing beta               =       0.7000
     number of iterations used =            8  plain     mixing
     Exchange-correlation= SLA  PW   PBX  PBC
                           (   1   4   3   4   0   0   0)

     celldm(1)=   7.620900  celldm(2)=   0.000000  celldm(3)=   0.000000
     celldm(4)=   0.000000  celldm(5)=   0.000000  celldm(6)=   0.000000

     crystal axes: (cart. coord. in units of alat)
               a(1) = (  -0.500000   0.000000   0.500000 )  
               a(2) = (   0.000000   0.500000   0.500000 )  
               a(3) = (  -0.500000   0.500000   0.000000 )  

     reciprocal axes: (cart. coord. in units 2 pi/alat)
               b(1) = ( -1.000000 -1.000000  1.000000 )  
               b(2) = (  1.000000  1.000000  1.000000 )  
               b(3) = ( -1.000000  1.000000 -1.000000 )  


     PseudoPot. # 1 for Al read from file:
     ./Al.pbe-n-kjpaw_psl.1.0.0.UPF
     MD5 check sum: 502b6b27b9c6270cab5dd1084b96fa6d
     Pseudo is Projector augmented-wave + core cor, Zval =  3.0
     Generated using &quot;atomic&quot; code by A. Dal Corso  v.6.3
     Shape of augmentation charge: PSQ
     Using radial grid of 1135 points,  6 beta functions with: 
                l(1) =   0
                l(2) =   0
                l(3) =   1
                l(4) =   1
                l(5) =   2
                l(6) =   2
     Q(r) pseudized with 0 coefficients 


     atomic species   valence    mass     pseudopotential
        Al             3.00    26.98100     Al( 1.00)

     48 Sym. Ops., with inversion, found



   Cartesian axes

     site n.     atom                  positions (alat units)
         1           Al  tau(   1) = (   0.0000000   0.0000000   0.0000000  )

     number of k points=    47  Methfessel-Paxton smearing, width (Ry)=  0.0500
                       cart. coord. in units 2pi/alat
        k(    1) = (   0.0000000   0.0000000   0.0000000), wk =   0.0020000
        k(    2) = (  -0.1000000   0.1000000  -0.1000000), wk =   0.0160000
        k(    3) = (  -0.2000000   0.2000000  -0.2000000), wk =   0.0160000
        k(    4) = (  -0.3000000   0.3000000  -0.3000000), wk =   0.0160000
        k(    5) = (  -0.4000000   0.4000000  -0.4000000), wk =   0.0160000
        k(    6) = (   0.5000000  -0.5000000   0.5000000), wk =   0.0080000
        k(    7) = (   0.0000000   0.2000000   0.0000000), wk =   0.0120000
        k(    8) = (  -0.1000000   0.3000000  -0.1000000), wk =   0.0480000
        k(    9) = (  -0.2000000   0.4000000  -0.2000000), wk =   0.0480000
        k(   10) = (  -0.3000000   0.5000000  -0.3000000), wk =   0.0480000
        k(   11) = (   0.6000000  -0.4000000   0.6000000), wk =   0.0480000
        k(   12) = (   0.5000000  -0.3000000   0.5000000), wk =   0.0480000
        k(   13) = (   0.4000000  -0.2000000   0.4000000), wk =   0.0480000
        k(   14) = (   0.3000000  -0.1000000   0.3000000), wk =   0.0480000
        k(   15) = (   0.2000000   0.0000000   0.2000000), wk =   0.0240000
        k(   16) = (   0.0000000   0.4000000   0.0000000), wk =   0.0120000
        k(   17) = (  -0.1000000   0.5000000  -0.1000000), wk =   0.0480000
        k(   18) = (  -0.2000000   0.6000000  -0.2000000), wk =   0.0480000
        k(   19) = (   0.7000000  -0.3000000   0.7000000), wk =   0.0480000
        k(   20) = (   0.6000000  -0.2000000   0.6000000), wk =   0.0480000
        k(   21) = (   0.5000000  -0.1000000   0.5000000), wk =   0.0480000
        k(   22) = (   0.4000000   0.0000000   0.4000000), wk =   0.0240000
        k(   23) = (   0.0000000   0.6000000   0.0000000), wk =   0.0120000
        k(   24) = (  -0.1000000   0.7000000  -0.1000000), wk =   0.0480000
        k(   25) = (   0.8000000  -0.2000000   0.8000000), wk =   0.0480000
        k(   26) = (   0.7000000  -0.1000000   0.7000000), wk =   0.0480000
        k(   27) = (   0.6000000  -0.0000000   0.6000000), wk =   0.0240000
        k(   28) = (   0.0000000   0.8000000   0.0000000), wk =   0.0120000
        k(   29) = (   0.9000000  -0.1000000   0.9000000), wk =   0.0480000
        k(   30) = (   0.8000000   0.0000000   0.8000000), wk =   0.0240000
        k(   31) = (   0.0000000  -1.0000000   0.0000000), wk =   0.0060000
        k(   32) = (  -0.2000000   0.4000000   0.0000000), wk =   0.0480000
        k(   33) = (  -0.3000000   0.5000000  -0.1000000), wk =   0.0960000
        k(   34) = (   0.6000000  -0.4000000   0.8000000), wk =   0.0960000
        k(   35) = (   0.5000000  -0.3000000   0.7000000), wk =   0.0480000
        k(   36) = (  -0.2000000   0.6000000   0.0000000), wk =   0.0480000
        k(   37) = (   0.7000000  -0.3000000   0.9000000), wk =   0.0960000
        k(   38) = (   0.6000000  -0.2000000   0.8000000), wk =   0.0960000
        k(   39) = (   0.5000000  -0.1000000   0.7000000), wk =   0.0960000
        k(   40) = (   0.4000000   0.0000000   0.6000000), wk =   0.0480000
        k(   41) = (   0.8000000  -0.2000000   1.0000000), wk =   0.0480000
        k(   42) = (   0.7000000  -0.1000000   0.9000000), wk =   0.0960000
        k(   43) = (   0.6000000   0.0000000   0.8000000), wk =   0.0480000
        k(   44) = (  -0.2000000  -1.0000000   0.0000000), wk =   0.0240000
        k(   45) = (   0.6000000  -0.2000000   1.0000000), wk =   0.0480000
        k(   46) = (   0.5000000  -0.1000000   0.9000000), wk =   0.0480000
        k(   47) = (  -0.4000000  -1.0000000   0.0000000), wk =   0.0240000

     Dense  grid:     6879 G-vectors     FFT dimensions: (  27,  27,  27)

     Estimated max dynamical RAM per process >      30.61 MB

     Initial potential from superposition of free atoms

     starting charge    2.99771, renormalised to    3.00000
     Starting wfcs are    4 randomized atomic wfcs +    2 random wfcs
     Checking if some PAW data can be deallocated... 

     total cpu time spent up to now is        0.8 secs

     Self-consistent Calculation

     iteration #  1     ecut=    60.00 Ry     beta= 0.70
     Davidson diagonalization with overlap
     ethr =  1.00E-02,  avg # of iterations =  6.1

     Threshold (ethr) on eigenvalues was too large:
     Diagonalizing with lowered threshold

     Davidson diagonalization with overlap
     ethr =  1.85E-04,  avg # of iterations =  3.4

     total cpu time spent up to now is        3.2 secs

     total energy              =     -39.50208899 Ry
     estimated scf accuracy    <       0.00545073 Ry

     iteration #  2     ecut=    60.00 Ry     beta= 0.70
     Davidson diagonalization with overlap
     ethr =  1.82E-04,  avg # of iterations =  1.0

     total cpu time spent up to now is        4.1 secs

     total energy              =     -39.50204300 Ry
     estimated scf accuracy    <       0.00039688 Ry

     iteration #  3     ecut=    60.00 Ry     beta= 0.70
     Davidson diagonalization with overlap
     ethr =  1.32E-05,  avg # of iterations =  3.3

     total cpu time spent up to now is        5.1 secs

     total energy              =     -39.50205093 Ry
     estimated scf accuracy    <       0.00000049 Ry

     iteration #  4     ecut=    60.00 Ry     beta= 0.70
     Davidson diagonalization with overlap
     ethr =  1.63E-08,  avg # of iterations =  3.2

     total cpu time spent up to now is        6.1 secs

     End of self-consistent calculation

          k = 0.0000 0.0000 0.0000 (   893 PWs)   bands (ev):

    -3.2116  20.6140  20.6140  22.1603  22.1603  22.1603

          k =-0.1000 0.1000-0.1000 (   881 PWs)   bands (ev):

    -2.9387  17.3344  19.9042  19.9042  22.8168  23.2776

          k =-0.2000 0.2000-0.2000 (   881 PWs)   bands (ev):

    -2.1230  13.3249  19.1510  19.1510  22.5280  23.6675

          k =-0.3000 0.3000-0.3000 (   869 PWs)   bands (ev):

    -0.7740   9.6160  18.8018  18.8018  21.9104  21.9104

          k =-0.4000 0.4000-0.4000 (   869 PWs)   bands (ev):

     1.0934   6.3167  18.8987  18.8987  20.4603  20.4603

          k = 0.5000-0.5000 0.5000 (   862 PWs)   bands (ev):

     3.3500   3.5810  19.4493  19.4493  19.4530  19.4530

          k = 0.0000 0.2000 0.0000 (   889 PWs)   bands (ev):

    -2.8478  18.5075  18.5076  18.7767  21.3664  23.9478

          k =-0.1000 0.3000-0.1000 (   883 PWs)   bands (ev):

    -2.2134  14.7987  17.5305  18.9323  21.3735  22.1694

          k =-0.2000 0.4000-0.2000 (   876 PWs)   bands (ev):

    -1.0428  11.0150  17.0060  18.6014  19.3445  24.2294

          k =-0.3000 0.5000-0.3000 (   862 PWs)   bands (ev):

     0.6508   7.5888  16.9407  17.6404  18.6290  23.1718

          k = 0.6000-0.4000 0.6000 (   865 PWs)   bands (ev):

     2.8450   4.6005  16.4433  17.3374  19.0681  22.0331

          k = 0.5000-0.3000 0.5000 (   871 PWs)   bands (ev):

     2.0610   5.5425  15.7179  18.1973  19.9874  21.3335

          k = 0.4000-0.2000 0.4000 (   866 PWs)   bands (ev):

     0.0293   8.6793  15.4785  19.5119  21.0848  21.3632

          k = 0.3000-0.1000 0.3000 (   881 PWs)   bands (ev):

    -1.4918  12.2139  15.7438  21.0758  21.4223  23.1347

          k = 0.2000 0.0000 0.2000 (   891 PWs)   bands (ev):

    -2.4849  15.7225  16.8271  21.3233  22.4837  23.6550

          k = 0.0000 0.4000 0.0000 (   869 PWs)   bands (ev):

    -1.7620  16.3743  16.3743  16.4287  18.7621  19.8124

          k =-0.1000 0.5000-0.1000 (   862 PWs)   bands (ev):

    -0.7741  12.8189  15.6842  16.3994  17.1146  20.5297

          k =-0.2000 0.6000-0.2000 (   865 PWs)   bands (ev):

     0.7385   9.3324  14.5457  15.4587  17.1260  23.0463

          k = 0.7000-0.3000 0.7000 (   862 PWs)   bands (ev):

     2.7565   6.2224  13.1535  15.6977  17.4579  25.0576

          k = 0.6000-0.2000 0.6000 (   857 PWs)   bands (ev):

     3.5383   5.2752  12.2598  16.4020  18.2596  24.2293

          k = 0.5000-0.1000 0.5000 (   872 PWs)   bands (ev):

     1.3576   8.1919  11.9104  17.5715  19.5352  23.8213

          k = 0.4000 0.0000 0.4000 (   867 PWs)   bands (ev):

    -0.3272  11.0518  12.5589  19.1984  21.2332  23.4358

          k = 0.0000 0.6000 0.0000 (   861 PWs)   bands (ev):

     0.0284  13.8803  14.6627  14.8333  14.8333  18.3768

          k =-0.1000 0.7000-0.1000 (   867 PWs)   bands (ev):

     1.3541  11.4219  11.8756  14.4494  15.7456  19.3537

          k = 0.8000-0.2000 0.8000 (   865 PWs)   bands (ev):

     3.1818   8.3022  10.2590  14.5307  16.1153  22.2040

          k = 0.7000-0.1000 0.7000 (   872 PWs)   bands (ev):

     5.3543   5.6342   9.2198  15.0773  16.8011  25.5948

          k = 0.6000-0.0000 0.6000 (   867 PWs)   bands (ev):

     3.1944   7.7004   9.2168  16.0907  17.9501  26.8839

          k = 0.0000 0.8000 0.0000 (   862 PWs)   bands (ev):

     2.4855   9.5420  13.5881  13.9084  13.9084  17.4218

          k = 0.9000-0.1000 0.9000 (   863 PWs)   bands (ev):

     4.0906   7.8043  10.8322  13.8326  15.0568  18.7328

          k = 0.8000 0.0000 0.8000 (   862 PWs)   bands (ev):

     5.6962   7.0185   8.0627  14.2217  15.7696  21.9119

          k = 0.0000-1.0000 0.0000 (   846 PWs)   bands (ev):

     5.0299   6.3681  13.2282  13.6004  13.6004  17.0900

          k =-0.2000 0.4000 0.0000 (   869 PWs)   bands (ev):

    -1.4019  13.3978  14.7155  19.0596  20.0052  21.8582

          k =-0.3000 0.5000-0.1000 (   867 PWs)   bands (ev):

    -0.0599  10.2101  13.8435  17.0722  20.3402  23.4197

          k = 0.6000-0.4000 0.8000 (   867 PWs)   bands (ev):

     1.7970   6.9807  13.8680  15.5468  20.5422  22.2265

          k = 0.5000-0.3000 0.7000 (   864 PWs)   bands (ev):

     4.0230   4.2869  14.2462  14.6731  20.9933  21.3398

          k =-0.2000 0.6000 0.0000 (   860 PWs)   bands (ev):

     0.3838  11.7245  13.0674  14.3016  18.4284  20.5445

          k = 0.7000-0.3000 0.9000 (   872 PWs)   bands (ev):

     2.0573   8.8579  12.2563  12.8123  19.1336  22.7420

          k = 0.6000-0.2000 0.8000 (   870 PWs)   bands (ev):

     4.2156   5.9585  11.2310  12.9647  19.6844  24.2892

          k = 0.5000-0.1000 0.7000 (   867 PWs)   bands (ev):

     3.4521   6.8357  10.5621  13.8392  20.6142  23.5771

          k = 0.4000 0.0000 0.6000 (   867 PWs)   bands (ev):

     1.4450   9.3754  10.8996  15.2210  21.9372  22.7015

          k = 0.8000-0.2000 1.0000 (   866 PWs)   bands (ev):

     2.8342   9.8574  10.7176  12.2136  17.4485  19.6659

          k = 0.7000-0.1000 0.9000 (   871 PWs)   bands (ev):

     4.7747   8.0852   8.6084  11.9311  18.4942  22.1951

          k = 0.6000 0.0000 0.8000 (   867 PWs)   bands (ev):

     5.5834   6.6974   8.1793  12.6162  19.3756  25.5812

          k =-0.2000-1.0000 0.0000 (   874 PWs)   bands (ev):

     5.3629   6.7174  10.3817  11.8684  17.1194  19.3611

          k = 0.6000-0.2000 1.0000 (   878 PWs)   bands (ev):

     3.8748   8.3701   9.7898  11.0623  21.7812  23.1872

          k = 0.5000-0.1000 0.9000 (   868 PWs)   bands (ev):

     6.0159   6.2697   9.5686  10.2688  22.7790  23.2107

          k =-0.4000-1.0000 0.0000 (   876 PWs)   bands (ev):

     6.3635   7.7042   8.0352   9.6949  21.4627  23.0834

     the Fermi energy is     8.0670 ev

!    total energy              =     -39.50205139 Ry

     total all-electron energy =      -485.644832 Ry
     estimated scf accuracy    <          1.8E-09 Ry
     smearing contrib. (-TS)   =      -0.00104926 Ry
     internal energy E=F+TS    =     -39.50100213 Ry

     The total energy is F=E-TS. E is the sum of the following terms:
     one-electron contribution =       3.18128310 Ry
     hartree contribution      =       0.00571267 Ry
     xc contribution           =      -2.59381476 Ry
     ewald contribution        =      -5.41455191 Ry
     one-center paw contrib.   =     -34.67963123 Ry

     convergence has been achieved in   4 iterations

     Forces acting on atoms (cartesian axes, Ry/au):

     atom    1 type  1   force =     0.00000000    0.00000000    0.00000000

     Total force =     0.000000     Total SCF correction =     0.000000


     Computing stress (Cartesian axis) and pressure

          total   stress  (Ry/bohr**3)                   (kbar)     P=        4.26
   0.00002896  -0.00000000  -0.00000000            4.26       -0.00       -0.00
  -0.00000000   0.00002896   0.00000000           -0.00        4.26        0.00
  -0.00000000   0.00000000   0.00002896           -0.00        0.00        4.26


     Writing output data file ./Al.save/

     init_run     :      2.78s CPU      0.71s WALL (       1 calls)
     electrons    :     46.03s CPU      5.27s WALL (       1 calls)
     forces       :      0.56s CPU      0.06s WALL (       1 calls)
     stress       :      2.50s CPU      0.39s WALL (       1 calls)

     Called by init_run:
     wfcinit      :      1.81s CPU      0.26s WALL (       1 calls)
     potinit      :      0.11s CPU      0.11s WALL (       1 calls)
     hinit0       :      0.77s CPU      0.30s WALL (       1 calls)

     Called by electrons:
     c_bands      :     36.07s CPU      3.94s WALL (       5 calls)
     sum_band     :      5.93s CPU      0.72s WALL (       5 calls)
     v_of_rho     :      0.35s CPU      0.05s WALL (       5 calls)
     newd         :      0.08s CPU      0.05s WALL (       5 calls)
     PAW_pot      :      3.68s CPU      0.63s WALL (       5 calls)
     mix_rho      :      0.01s CPU      0.00s WALL (       5 calls)

     Called by c_bands:
     init_us_2    :      1.81s CPU      0.20s WALL (     611 calls)
     cegterg      :     33.87s CPU      3.71s WALL (     235 calls)

     Called by *egterg:
     cdiaghg      :      0.79s CPU      0.08s WALL (     988 calls)
     h_psi        :     30.49s CPU      3.44s WALL (    1082 calls)
     s_psi        :      0.81s CPU      0.09s WALL (    1082 calls)
     g_psi        :      0.14s CPU      0.01s WALL (     800 calls)

     Called by h_psi:
     h_psi:calbec :      0.78s CPU      0.10s WALL (    1082 calls)
     vloc_psi     :     28.60s CPU      3.22s WALL (    1082 calls)
     add_vuspsi   :      0.89s CPU      0.10s WALL (    1082 calls)

     General routines
     calbec       :      1.13s CPU      0.13s WALL (    1552 calls)
     fft          :      0.26s CPU      0.04s WALL (      81 calls)
     ffts         :      0.03s CPU      0.00s WALL (       5 calls)
     fftw         :     30.55s CPU      3.47s WALL (   10012 calls)

     Parallel routines

     PWSCF        :     52.65s CPU      6.62s WALL


   This run was terminated on:  10:15:52  24Feb2022            

=------------------------------------------------------------------------------=
   JOB DONE.
=------------------------------------------------------------------------------=
