
     Program PWSCF v.6.7MaX starts on 22Feb2022 at 14: 2: 5 

     This program is part of the open-source Quantum ESPRESSO suite
     for quantum simulation of materials; please cite
         "P. Giannozzi et al., J. Phys.:Condens. Matter 21 395502 (2009);
         "P. Giannozzi et al., J. Phys.:Condens. Matter 29 465901 (2017);
          URL http://www.quantum-espresso.org", 
     in publications or presentations arising from this work. More details at
     http://www.quantum-espresso.org/quote

     Parallel version (MPI), running on     1 processors

     MPI processes distributed on     1 nodes
     Waiting for input...
     Reading input from standard input
Warning: card &CELL ignored
Warning: card 	CELL_DYNAMICS = 'BFGS' ignored
Warning: card / ignored

     Current dimensions of program PWSCF are:
     Max number of different atomic species (ntypx) = 10
     Max number of k-points (npk) =  40000
     Max angular momentum in pseudopotentials (lmaxx) =  3
     file Al.pbe-n-kjpaw_psl.1.0.0.UPF: wavefunction(s)  3S 3P renormalized

     Subspace diagonalization in iterative solution of the eigenvalue problem:
     a serial algorithm will be used


     G-vector sticks info
     --------------------
     sticks:   dense  smooth     PW     G-vecs:    dense   smooth      PW
     Sum         349     349    109                 4279     4279     749



     bravais-lattice index     =            2
     lattice parameter (alat)  =       5.0000  a.u.
     unit-cell volume          =      31.2500 (a.u.)^3
     number of atoms/cell      =            1
     number of atomic types    =            1
     number of electrons       =         3.00
     number of Kohn-Sham states=            6
     kinetic-energy cutoff     =     100.0000  Ry
     charge density cutoff     =     400.0000  Ry
     scf convergence threshold =      1.0E-08
     mixing beta               =       0.7000
     number of iterations used =            8  plain     mixing
     Exchange-correlation= SLA  PW   PBX  PBC
                           (   1   4   3   4   0   0   0)

     celldm(1)=   5.000000  celldm(2)=   0.000000  celldm(3)=   0.000000
     celldm(4)=   0.000000  celldm(5)=   0.000000  celldm(6)=   0.000000

     crystal axes: (cart. coord. in units of alat)
               a(1) = (  -0.500000   0.000000   0.500000 )  
               a(2) = (   0.000000   0.500000   0.500000 )  
               a(3) = (  -0.500000   0.500000   0.000000 )  

     reciprocal axes: (cart. coord. in units 2 pi/alat)
               b(1) = ( -1.000000 -1.000000  1.000000 )  
               b(2) = (  1.000000  1.000000  1.000000 )  
               b(3) = ( -1.000000  1.000000 -1.000000 )  


     PseudoPot. # 1 for Al read from file:
     ./Al.pbe-n-kjpaw_psl.1.0.0.UPF
     MD5 check sum: 502b6b27b9c6270cab5dd1084b96fa6d
     Pseudo is Projector augmented-wave + core cor, Zval =  3.0
     Generated using &quot;atomic&quot; code by A. Dal Corso  v.6.3
     Shape of augmentation charge: PSQ
     Using radial grid of 1135 points,  6 beta functions with: 
                l(1) =   0
                l(2) =   0
                l(3) =   1
                l(4) =   1
                l(5) =   2
                l(6) =   2
     Q(r) pseudized with 0 coefficients 


     atomic species   valence    mass     pseudopotential
        Al             3.00    26.98100     Al( 1.00)

     48 Sym. Ops., with inversion, found



   Cartesian axes

     site n.     atom                  positions (alat units)
         1           Al  tau(   1) = (   0.0000000   0.0000000   0.0000000  )

     number of k points=     8  Methfessel-Paxton smearing, width (Ry)=  0.0500
                       cart. coord. in units 2pi/alat
        k(    1) = (   0.0000000   0.0000000   0.0000000), wk =   0.0312500
        k(    2) = (  -0.2500000   0.2500000  -0.2500000), wk =   0.2500000
        k(    3) = (   0.5000000  -0.5000000   0.5000000), wk =   0.1250000
        k(    4) = (   0.0000000   0.5000000   0.0000000), wk =   0.1875000
        k(    5) = (   0.7500000  -0.2500000   0.7500000), wk =   0.7500000
        k(    6) = (   0.5000000   0.0000000   0.5000000), wk =   0.3750000
        k(    7) = (   0.0000000  -1.0000000   0.0000000), wk =   0.0937500
        k(    8) = (  -0.5000000  -1.0000000   0.0000000), wk =   0.1875000

     Dense  grid:     4279 G-vectors     FFT dimensions: (  24,  24,  24)

     Estimated max dynamical RAM per process >      18.04 MB

     Initial potential from superposition of free atoms

     starting charge    2.99771, renormalised to    3.00000
     Starting wfcs are    4 randomized atomic wfcs +    2 random wfcs
     Checking if some PAW data can be deallocated... 

     total cpu time spent up to now is        0.6 secs

     Self-consistent Calculation

     iteration #  1     ecut=   100.00 Ry     beta= 0.70
     Davidson diagonalization with overlap
     ethr =  1.00E-02,  avg # of iterations =  6.2

     Threshold (ethr) on eigenvalues was too large:
     Diagonalizing with lowered threshold

     Davidson diagonalization with overlap
     ethr =  4.93E-04,  avg # of iterations =  1.1

     total cpu time spent up to now is        1.0 secs

     total energy              =     -38.24760349 Ry
     estimated scf accuracy    <       0.01473295 Ry

     iteration #  2     ecut=   100.00 Ry     beta= 0.70
     Davidson diagonalization with overlap
     ethr =  4.91E-04,  avg # of iterations =  2.1

     total cpu time spent up to now is        1.2 secs

     total energy              =     -38.24946608 Ry
     estimated scf accuracy    <       0.00168749 Ry

     iteration #  3     ecut=   100.00 Ry     beta= 0.70
     Davidson diagonalization with overlap
     ethr =  5.62E-05,  avg # of iterations =  3.1

     total cpu time spent up to now is        1.4 secs

     total energy              =     -38.24971285 Ry
     estimated scf accuracy    <       0.00000380 Ry

     iteration #  4     ecut=   100.00 Ry     beta= 0.70
     Davidson diagonalization with overlap
     ethr =  1.27E-07,  avg # of iterations =  2.9

     total cpu time spent up to now is        1.6 secs

     total energy              =     -38.24971173 Ry
     estimated scf accuracy    <       0.00000053 Ry

     iteration #  5     ecut=   100.00 Ry     beta= 0.70
     Davidson diagonalization with overlap
     ethr =  1.77E-08,  avg # of iterations =  2.0

     total cpu time spent up to now is        1.8 secs

     End of self-consistent calculation

          k = 0.0000 0.0000 0.0000 (   531 PWs)   bands (ev):

     8.0952  52.0500  52.0500  52.0500  60.6441  69.1975

          k =-0.2500 0.2500-0.2500 (   531 PWs)   bands (ev):

    11.9055  36.3619  51.3611  51.3611  60.0193  62.5697

          k = 0.5000-0.5000 0.5000 (   544 PWs)   bands (ev):

    20.5308  23.1717  48.9795  48.9795  57.6482  65.6239

          k = 0.0000 0.5000 0.0000 (   528 PWs)   bands (ev):

    13.0688  39.3632  43.4725  48.7127  48.7127  71.4325

          k = 0.7500-0.2500 0.7500 (   529 PWs)   bands (ev):

    20.3643  28.3884  35.9035  48.0378  53.8964  73.1483

          k = 0.5000 0.0000 0.5000 (   524 PWs)   bands (ev):

    17.4445  31.6483  36.4308  50.5600  61.1679  62.7902

          k = 0.0000-1.0000 0.0000 (   524 PWs)   bands (ev):

    24.4225  25.8053  33.9539  47.5107  47.5107  66.9206

          k =-0.5000-1.0000 0.0000 (   524 PWs)   bands (ev):

    26.0316  28.3434  28.3434  43.2736  63.7497  63.7497

     the Fermi energy is    28.5349 ev

!    total energy              =     -38.24971195 Ry

     total all-electron energy =      -484.392492 Ry
     estimated scf accuracy    <          9.1E-10 Ry
     smearing contrib. (-TS)   =      -0.00663733 Ry
     internal energy E=F+TS    =     -38.24307462 Ry

     The total energy is F=E-TS. E is the sum of the following terms:
     one-electron contribution =       8.64386660 Ry
     hartree contribution      =       0.03975767 Ry
     xc contribution           =      -3.59038063 Ry
     ewald contribution        =      -8.25275173 Ry
     one-center paw contrib.   =     -35.08356653 Ry

     convergence has been achieved in   5 iterations

     Forces acting on atoms (cartesian axes, Ry/au):

     atom    1 type  1   force =     0.00000000    0.00000000    0.00000000

     Total force =     0.000000     Total SCF correction =     0.000000


     Computing stress (Cartesian axis) and pressure

          total   stress  (Ry/bohr**3)                   (kbar)     P=    12980.09
   0.08823687   0.00000000   0.00000000        12980.09        0.00        0.00
   0.00000000   0.08823687  -0.00000000            0.00    12980.09       -0.00
   0.00000000  -0.00000000   0.08823687            0.00       -0.00    12980.09


     Writing output data file ./Al.save/

     init_run     :      1.10s CPU      0.51s WALL (       1 calls)
     electrons    :      9.15s CPU      1.23s WALL (       1 calls)
     forces       :      0.21s CPU      0.02s WALL (       1 calls)
     stress       :      1.21s CPU      0.14s WALL (       1 calls)

     Called by init_run:
     wfcinit      :      0.12s CPU      0.02s WALL (       1 calls)
     potinit      :      0.10s CPU      0.11s WALL (       1 calls)
     hinit0       :      0.80s CPU      0.33s WALL (       1 calls)

     Called by electrons:
     c_bands      :      2.90s CPU      0.37s WALL (       6 calls)
     sum_band     :      0.98s CPU      0.11s WALL (       6 calls)
     v_of_rho     :      0.27s CPU      0.03s WALL (       6 calls)
     newd         :      0.08s CPU      0.04s WALL (       6 calls)
     PAW_pot      :      4.97s CPU      0.77s WALL (       6 calls)
     mix_rho      :      0.02s CPU      0.00s WALL (       6 calls)

     Called by c_bands:
     init_us_2    :      0.21s CPU      0.02s WALL (     120 calls)
     cegterg      :      2.64s CPU      0.34s WALL (      48 calls)

     Called by *egterg:
     cdiaghg      :      0.11s CPU      0.01s WALL (     180 calls)
     h_psi        :      2.12s CPU      0.29s WALL (     196 calls)
     s_psi        :      0.12s CPU      0.01s WALL (     196 calls)
     g_psi        :      0.02s CPU      0.00s WALL (     140 calls)

     Called by h_psi:
     h_psi:calbec :      0.07s CPU      0.01s WALL (     196 calls)
     vloc_psi     :      1.91s CPU      0.26s WALL (     196 calls)
     add_vuspsi   :      0.11s CPU      0.02s WALL (     196 calls)

     General routines
     calbec       :      0.11s CPU      0.01s WALL (     284 calls)
     fft          :      0.13s CPU      0.02s WALL (      92 calls)
     ffts         :      0.01s CPU      0.00s WALL (       6 calls)
     fftw         :      1.99s CPU      0.26s WALL (    1964 calls)

     Parallel routines

     PWSCF        :     11.92s CPU      2.02s WALL


   This run was terminated on:  14: 2: 7  22Feb2022            

=------------------------------------------------------------------------------=
   JOB DONE.
=------------------------------------------------------------------------------=
