
     Program PWSCF v.6.7MaX starts on 22Feb2022 at 15:21:34 

     This program is part of the open-source Quantum ESPRESSO suite
     for quantum simulation of materials; please cite
         "P. Giannozzi et al., J. Phys.:Condens. Matter 21 395502 (2009);
         "P. Giannozzi et al., J. Phys.:Condens. Matter 29 465901 (2017);
          URL http://www.quantum-espresso.org", 
     in publications or presentations arising from this work. More details at
     http://www.quantum-espresso.org/quote

     Parallel version (MPI), running on     1 processors

     MPI processes distributed on     1 nodes
     Waiting for input...
     Reading input from standard input
Warning: card &CELL ignored
Warning: card 	CELL_DYNAMICS = 'BFGS' ignored
Warning: card / ignored

     Current dimensions of program PWSCF are:
     Max number of different atomic species (ntypx) = 10
     Max number of k-points (npk) =  40000
     Max angular momentum in pseudopotentials (lmaxx) =  3
     file Al.pbe-n-kjpaw_psl.1.0.0.UPF: wavefunction(s)  3S 3P renormalized

     Subspace diagonalization in iterative solution of the eigenvalue problem:
     a serial algorithm will be used


     G-vector sticks info
     --------------------
     sticks:   dense  smooth     PW     G-vecs:    dense   smooth      PW
     Sum         241     241     85                 2445     2445     531



     bravais-lattice index     =            2
     lattice parameter (alat)  =       5.0000  a.u.
     unit-cell volume          =      31.2500 (a.u.)^3
     number of atoms/cell      =            1
     number of atomic types    =            1
     number of electrons       =         3.00
     number of Kohn-Sham states=            6
     kinetic-energy cutoff     =      70.0000  Ry
     charge density cutoff     =     280.0000  Ry
     scf convergence threshold =      1.0E-08
     mixing beta               =       0.7000
     number of iterations used =            8  plain     mixing
     Exchange-correlation= SLA  PW   PBX  PBC
                           (   1   4   3   4   0   0   0)

     celldm(1)=   5.000000  celldm(2)=   0.000000  celldm(3)=   0.000000
     celldm(4)=   0.000000  celldm(5)=   0.000000  celldm(6)=   0.000000

     crystal axes: (cart. coord. in units of alat)
               a(1) = (  -0.500000   0.000000   0.500000 )  
               a(2) = (   0.000000   0.500000   0.500000 )  
               a(3) = (  -0.500000   0.500000   0.000000 )  

     reciprocal axes: (cart. coord. in units 2 pi/alat)
               b(1) = ( -1.000000 -1.000000  1.000000 )  
               b(2) = (  1.000000  1.000000  1.000000 )  
               b(3) = ( -1.000000  1.000000 -1.000000 )  


     PseudoPot. # 1 for Al read from file:
     ./Al.pbe-n-kjpaw_psl.1.0.0.UPF
     MD5 check sum: 502b6b27b9c6270cab5dd1084b96fa6d
     Pseudo is Projector augmented-wave + core cor, Zval =  3.0
     Generated using &quot;atomic&quot; code by A. Dal Corso  v.6.3
     Shape of augmentation charge: PSQ
     Using radial grid of 1135 points,  6 beta functions with: 
                l(1) =   0
                l(2) =   0
                l(3) =   1
                l(4) =   1
                l(5) =   2
                l(6) =   2
     Q(r) pseudized with 0 coefficients 


     atomic species   valence    mass     pseudopotential
        Al             3.00    26.98100     Al( 1.00)

     48 Sym. Ops., with inversion, found



   Cartesian axes

     site n.     atom                  positions (alat units)
         1           Al  tau(   1) = (   0.0000000   0.0000000   0.0000000  )

     number of k points=   104  Methfessel-Paxton smearing, width (Ry)=  0.0500

     Number of k-points >= 100: set verbosity='high' to print them.

     Dense  grid:     2445 G-vectors     FFT dimensions: (  20,  20,  20)

     Estimated max dynamical RAM per process >      13.46 MB

     Initial potential from superposition of free atoms

     starting charge    2.99771, renormalised to    3.00000
     Starting wfcs are    4 randomized atomic wfcs +    2 random wfcs
     Checking if some PAW data can be deallocated... 

     total cpu time spent up to now is        0.6 secs

     Self-consistent Calculation

     iteration #  1     ecut=    70.00 Ry     beta= 0.70
     Davidson diagonalization with overlap
     ethr =  1.00E-02,  avg # of iterations =  6.4

     Threshold (ethr) on eigenvalues was too large:
     Diagonalizing with lowered threshold

     Davidson diagonalization with overlap
     ethr =  4.68E-04,  avg # of iterations =  1.2

     total cpu time spent up to now is        1.7 secs

     total energy              =     -38.26605752 Ry
     estimated scf accuracy    <       0.01403417 Ry

     iteration #  2     ecut=    70.00 Ry     beta= 0.70
     Davidson diagonalization with overlap
     ethr =  4.68E-04,  avg # of iterations =  1.8

     total cpu time spent up to now is        2.2 secs

     total energy              =     -38.26792689 Ry
     estimated scf accuracy    <       0.00166261 Ry

     iteration #  3     ecut=    70.00 Ry     beta= 0.70
     Davidson diagonalization with overlap
     ethr =  5.54E-05,  avg # of iterations =  2.5

     total cpu time spent up to now is        2.7 secs

     total energy              =     -38.26815865 Ry
     estimated scf accuracy    <       0.00000271 Ry

     iteration #  4     ecut=    70.00 Ry     beta= 0.70
     Davidson diagonalization with overlap
     ethr =  9.03E-08,  avg # of iterations =  3.8

     total cpu time spent up to now is        3.3 secs

     total energy              =     -38.26816064 Ry
     estimated scf accuracy    <       0.00000019 Ry

     iteration #  5     ecut=    70.00 Ry     beta= 0.70
     Davidson diagonalization with overlap
     ethr =  6.31E-09,  avg # of iterations =  2.0

     total cpu time spent up to now is        3.8 secs

     End of self-consistent calculation

     Number of k-points >= 100: set verbosity='high' to print the bands.

     the Fermi energy is    29.5785 ev

!    total energy              =     -38.26816069 Ry

     total all-electron energy =      -484.410941 Ry
     estimated scf accuracy    <          8.2E-10 Ry
     smearing contrib. (-TS)   =      -0.00039818 Ry
     internal energy E=F+TS    =     -38.26776251 Ry

     The total energy is F=E-TS. E is the sum of the following terms:
     one-electron contribution =       8.63155012 Ry
     hartree contribution      =       0.03870425 Ry
     xc contribution           =      -3.59146720 Ry
     ewald contribution        =      -8.25275173 Ry
     one-center paw contrib.   =     -35.09379795 Ry

     convergence has been achieved in   5 iterations

     Forces acting on atoms (cartesian axes, Ry/au):

     atom    1 type  1   force =     0.00000000    0.00000000    0.00000000

     Total force =     0.000000     Total SCF correction =     0.000000


     Computing stress (Cartesian axis) and pressure

          total   stress  (Ry/bohr**3)                   (kbar)     P=    13116.97
   0.08916737  -0.00000000  -0.00000000        13116.97       -0.00       -0.00
  -0.00000000   0.08916737   0.00000000           -0.00    13116.97        0.00
  -0.00000000   0.00000000   0.08916737           -0.00        0.00    13116.97


     Writing output data file ./Al.save/

     init_run     :      1.75s CPU      0.55s WALL (       1 calls)
     electrons    :     26.31s CPU      3.14s WALL (       1 calls)
     forces       :      0.38s CPU      0.04s WALL (       1 calls)
     stress       :      1.83s CPU      0.26s WALL (       1 calls)

     Called by init_run:
     wfcinit      :      0.79s CPU      0.12s WALL (       1 calls)
     potinit      :      0.10s CPU      0.11s WALL (       1 calls)
     hinit0       :      0.70s CPU      0.27s WALL (       1 calls)

     Called by electrons:
     c_bands      :     18.02s CPU      2.08s WALL (       6 calls)
     sum_band     :      2.81s CPU      0.33s WALL (       6 calls)
     v_of_rho     :      0.10s CPU      0.02s WALL (       6 calls)
     newd         :      0.09s CPU      0.03s WALL (       6 calls)
     PAW_pot      :      5.41s CPU      0.80s WALL (       6 calls)
     mix_rho      :      0.01s CPU      0.00s WALL (       6 calls)

     Called by c_bands:
     init_us_2    :      1.57s CPU      0.19s WALL (    1560 calls)
     cegterg      :     15.90s CPU      1.83s WALL (     624 calls)

     Called by *egterg:
     cdiaghg      :      1.53s CPU      0.18s WALL (    2376 calls)
     h_psi        :     10.95s CPU      1.28s WALL (    2584 calls)
     s_psi        :      1.55s CPU      0.18s WALL (    2584 calls)
     g_psi        :      0.14s CPU      0.02s WALL (    1856 calls)

     Called by h_psi:
     h_psi:calbec :      0.81s CPU      0.09s WALL (    2584 calls)
     vloc_psi     :      8.28s CPU      0.97s WALL (    2584 calls)
     add_vuspsi   :      1.48s CPU      0.17s WALL (    2584 calls)

     General routines
     calbec       :      1.03s CPU      0.12s WALL (    3728 calls)
     fft          :      0.02s CPU      0.00s WALL (      92 calls)
     ffts         :      0.00s CPU      0.00s WALL (       6 calls)
     fftw         :      7.06s CPU      0.83s WALL (   25754 calls)

     Parallel routines

     PWSCF        :     31.22s CPU      4.21s WALL


   This run was terminated on:  15:21:38  22Feb2022            

=------------------------------------------------------------------------------=
   JOB DONE.
=------------------------------------------------------------------------------=
