
     Program PWSCF v.6.7MaX starts on 22Feb2022 at 15:21:17 

     This program is part of the open-source Quantum ESPRESSO suite
     for quantum simulation of materials; please cite
         "P. Giannozzi et al., J. Phys.:Condens. Matter 21 395502 (2009);
         "P. Giannozzi et al., J. Phys.:Condens. Matter 29 465901 (2017);
          URL http://www.quantum-espresso.org", 
     in publications or presentations arising from this work. More details at
     http://www.quantum-espresso.org/quote

     Parallel version (MPI), running on     1 processors

     MPI processes distributed on     1 nodes
     Waiting for input...
     Reading input from standard input
Warning: card &CELL ignored
Warning: card 	CELL_DYNAMICS = 'BFGS' ignored
Warning: card / ignored

     Current dimensions of program PWSCF are:
     Max number of different atomic species (ntypx) = 10
     Max number of k-points (npk) =  40000
     Max angular momentum in pseudopotentials (lmaxx) =  3
     file Al.pbe-n-kjpaw_psl.1.0.0.UPF: wavefunction(s)  3S 3P renormalized

     Subspace diagonalization in iterative solution of the eigenvalue problem:
     a serial algorithm will be used


     G-vector sticks info
     --------------------
     sticks:   dense  smooth     PW     G-vecs:    dense   smooth      PW
     Sum         241     241     85                 2445     2445     531



     bravais-lattice index     =            2
     lattice parameter (alat)  =       5.0000  a.u.
     unit-cell volume          =      31.2500 (a.u.)^3
     number of atoms/cell      =            1
     number of atomic types    =            1
     number of electrons       =         3.00
     number of Kohn-Sham states=            6
     kinetic-energy cutoff     =      70.0000  Ry
     charge density cutoff     =     280.0000  Ry
     scf convergence threshold =      1.0E-08
     mixing beta               =       0.7000
     number of iterations used =            8  plain     mixing
     Exchange-correlation= SLA  PW   PBX  PBC
                           (   1   4   3   4   0   0   0)

     celldm(1)=   5.000000  celldm(2)=   0.000000  celldm(3)=   0.000000
     celldm(4)=   0.000000  celldm(5)=   0.000000  celldm(6)=   0.000000

     crystal axes: (cart. coord. in units of alat)
               a(1) = (  -0.500000   0.000000   0.500000 )  
               a(2) = (   0.000000   0.500000   0.500000 )  
               a(3) = (  -0.500000   0.500000   0.000000 )  

     reciprocal axes: (cart. coord. in units 2 pi/alat)
               b(1) = ( -1.000000 -1.000000  1.000000 )  
               b(2) = (  1.000000  1.000000  1.000000 )  
               b(3) = ( -1.000000  1.000000 -1.000000 )  


     PseudoPot. # 1 for Al read from file:
     ./Al.pbe-n-kjpaw_psl.1.0.0.UPF
     MD5 check sum: 502b6b27b9c6270cab5dd1084b96fa6d
     Pseudo is Projector augmented-wave + core cor, Zval =  3.0
     Generated using &quot;atomic&quot; code by A. Dal Corso  v.6.3
     Shape of augmentation charge: PSQ
     Using radial grid of 1135 points,  6 beta functions with: 
                l(1) =   0
                l(2) =   0
                l(3) =   1
                l(4) =   1
                l(5) =   2
                l(6) =   2
     Q(r) pseudized with 0 coefficients 


     atomic species   valence    mass     pseudopotential
        Al             3.00    26.98100     Al( 1.00)

     48 Sym. Ops., with inversion, found



   Cartesian axes

     site n.     atom                  positions (alat units)
         1           Al  tau(   1) = (   0.0000000   0.0000000   0.0000000  )

     number of k points=    35  Methfessel-Paxton smearing, width (Ry)=  0.0500
                       cart. coord. in units 2pi/alat
        k(    1) = (   0.0000000   0.0000000   0.0000000), wk =   0.0027435
        k(    2) = (  -0.1111111   0.1111111  -0.1111111), wk =   0.0219479
        k(    3) = (  -0.2222222   0.2222222  -0.2222222), wk =   0.0219479
        k(    4) = (  -0.3333333   0.3333333  -0.3333333), wk =   0.0219479
        k(    5) = (  -0.4444444   0.4444444  -0.4444444), wk =   0.0219479
        k(    6) = (   0.0000000   0.2222222   0.0000000), wk =   0.0164609
        k(    7) = (  -0.1111111   0.3333333  -0.1111111), wk =   0.0658436
        k(    8) = (  -0.2222222   0.4444444  -0.2222222), wk =   0.0658436
        k(    9) = (  -0.3333333   0.5555556  -0.3333333), wk =   0.0658436
        k(   10) = (   0.5555556  -0.3333333   0.5555556), wk =   0.0658436
        k(   11) = (   0.4444444  -0.2222222   0.4444444), wk =   0.0658436
        k(   12) = (   0.3333333  -0.1111111   0.3333333), wk =   0.0658436
        k(   13) = (   0.2222222  -0.0000000   0.2222222), wk =   0.0329218
        k(   14) = (   0.0000000   0.4444444   0.0000000), wk =   0.0164609
        k(   15) = (  -0.1111111   0.5555556  -0.1111111), wk =   0.0658436
        k(   16) = (  -0.2222222   0.6666667  -0.2222222), wk =   0.0658436
        k(   17) = (   0.6666667  -0.2222222   0.6666667), wk =   0.0658436
        k(   18) = (   0.5555556  -0.1111111   0.5555556), wk =   0.0658436
        k(   19) = (   0.4444444   0.0000000   0.4444444), wk =   0.0329218
        k(   20) = (   0.0000000   0.6666667   0.0000000), wk =   0.0164609
        k(   21) = (  -0.1111111   0.7777778  -0.1111111), wk =   0.0658436
        k(   22) = (   0.7777778  -0.1111111   0.7777778), wk =   0.0658436
        k(   23) = (   0.6666667  -0.0000000   0.6666667), wk =   0.0329218
        k(   24) = (   0.0000000   0.8888889   0.0000000), wk =   0.0164609
        k(   25) = (   0.8888889   0.0000000   0.8888889), wk =   0.0329218
        k(   26) = (  -0.2222222   0.4444444   0.0000000), wk =   0.0658436
        k(   27) = (  -0.3333333   0.5555556  -0.1111111), wk =   0.1316872
        k(   28) = (   0.5555556  -0.3333333   0.7777778), wk =   0.1316872
        k(   29) = (  -0.2222222   0.6666667   0.0000000), wk =   0.0658436
        k(   30) = (   0.6666667  -0.2222222   0.8888889), wk =   0.1316872
        k(   31) = (   0.5555556  -0.1111111   0.7777778), wk =   0.1316872
        k(   32) = (   0.4444444   0.0000000   0.6666667), wk =   0.0658436
        k(   33) = (   0.7777778  -0.1111111   1.0000000), wk =   0.0658436
        k(   34) = (   0.6666667  -0.0000000   0.8888889), wk =   0.0658436
        k(   35) = (   0.5555556  -0.1111111   1.0000000), wk =   0.0658436

     Dense  grid:     2445 G-vectors     FFT dimensions: (  20,  20,  20)

     Estimated max dynamical RAM per process >      11.51 MB

     Initial potential from superposition of free atoms

     starting charge    2.99771, renormalised to    3.00000
     Starting wfcs are    4 randomized atomic wfcs +    2 random wfcs
     Checking if some PAW data can be deallocated... 

     total cpu time spent up to now is        0.6 secs

     Self-consistent Calculation

     iteration #  1     ecut=    70.00 Ry     beta= 0.70
     Davidson diagonalization with overlap
     ethr =  1.00E-02,  avg # of iterations =  6.6

     Threshold (ethr) on eigenvalues was too large:
     Diagonalizing with lowered threshold

     Davidson diagonalization with overlap
     ethr =  4.75E-04,  avg # of iterations =  1.3

     total cpu time spent up to now is        1.1 secs

     total energy              =     -38.26337639 Ry
     estimated scf accuracy    <       0.01423857 Ry

     iteration #  2     ecut=    70.00 Ry     beta= 0.70
     Davidson diagonalization with overlap
     ethr =  4.75E-04,  avg # of iterations =  1.9

     total cpu time spent up to now is        1.3 secs

     total energy              =     -38.26522337 Ry
     estimated scf accuracy    <       0.00167103 Ry

     iteration #  3     ecut=    70.00 Ry     beta= 0.70
     Davidson diagonalization with overlap
     ethr =  5.57E-05,  avg # of iterations =  2.5

     total cpu time spent up to now is        1.6 secs

     total energy              =     -38.26545326 Ry
     estimated scf accuracy    <       0.00000296 Ry

     iteration #  4     ecut=    70.00 Ry     beta= 0.70
     Davidson diagonalization with overlap
     ethr =  9.88E-08,  avg # of iterations =  3.7

     total cpu time spent up to now is        1.9 secs

     total energy              =     -38.26545570 Ry
     estimated scf accuracy    <       0.00000019 Ry

     iteration #  5     ecut=    70.00 Ry     beta= 0.70
     Davidson diagonalization with overlap
     ethr =  6.37E-09,  avg # of iterations =  2.0

     total cpu time spent up to now is        2.1 secs

     End of self-consistent calculation

          k = 0.0000 0.0000 0.0000 (   331 PWs)   bands (ev):

     8.0998  52.0581  52.0581  52.0581  60.6526  69.1949

          k =-0.1111 0.1111-0.1111 (   316 PWs)   bands (ev):

     8.8853  46.2312  52.1518  52.1518  63.4623  64.4058

          k =-0.2222 0.2222-0.2222 (   311 PWs)   bands (ev):

    11.1440  38.2595  51.6763  51.6763  60.6728  62.5097

          k =-0.3333 0.3333-0.3333 (   308 PWs)   bands (ev):

    14.6276  31.0661  50.2380  50.2380  58.5597  63.6394

          k =-0.4444 0.4444-0.4444 (   314 PWs)   bands (ev):

    18.9593  24.9744  49.1330  49.1330  57.7253  65.3582

          k = 0.0000 0.2222 0.0000 (   307 PWs)   bands (ev):

     9.1424  46.7485  50.8875  50.8875  57.6239  68.0802

          k =-0.1111 0.3333-0.1111 (   308 PWs)   bands (ev):

    10.8964  40.6909  49.5480  50.0612  55.0839  68.1279

          k =-0.2222 0.4444-0.2222 (   309 PWs)   bands (ev):

    13.9484  33.6311  46.4469  49.2564  57.4495  65.9755

          k =-0.3333 0.5556-0.3333 (   312 PWs)   bands (ev):

    17.9864  27.3088  44.3919  48.7035  59.8270  65.4480

          k = 0.5556-0.3333 0.5556 (   312 PWs)   bands (ev):

    20.6747  24.0748  43.5155  48.9786  61.4716  65.5221

          k = 0.4444-0.2222 0.4444 (   310 PWs)   bands (ev):

    16.5564  29.3226  43.7402  50.4987  62.5215  62.5556

          k = 0.3333-0.1111 0.3333 (   307 PWs)   bands (ev):

    12.8065  35.8557  45.1286  53.3342  58.5407  63.0438

          k = 0.2222-0.0000 0.2222 (   315 PWs)   bands (ev):

    10.1568  42.2464  48.1453  54.2029  58.7464  63.5044

          k = 0.0000 0.4444 0.0000 (   303 PWs)   bands (ev):

    12.0897  40.6235  46.0786  49.0773  49.0773  71.9989

          k =-0.1111 0.5556-0.1111 (   310 PWs)   bands (ev):

    14.5947  36.1598  40.9780  48.4575  50.9628  71.5536

          k =-0.2222 0.6667-0.2222 (   313 PWs)   bands (ev):

    18.1601  30.3038  38.1881  48.1406  53.8593  72.6714

          k = 0.6667-0.2222 0.6667 (   303 PWs)   bands (ev):

    21.9189  25.6468  36.7079  48.3863  56.7149  70.1501

          k = 0.5556-0.1111 0.5556 (   307 PWs)   bands (ev):

    19.4737  28.6392  36.3920  49.5352  59.7712  65.4602

          k = 0.4444 0.0000 0.4444 (   311 PWs)   bands (ev):

    15.6957  33.2710  38.6284  51.6967  60.5718  62.4760

          k = 0.0000 0.6667 0.0000 (   310 PWs)   bands (ev):

    16.5036  36.3775  36.3859  47.9736  47.9736  69.3807

          k =-0.1111 0.7778-0.1111 (   316 PWs)   bands (ev):

    19.5091  31.9983  34.0513  47.7485  49.2267  69.3908

          k = 0.7778-0.1111 0.7778 (   307 PWs)   bands (ev):

    23.1564  27.9737  31.8653  47.8524  51.8586  72.2448

          k = 0.6667-0.0000 0.6667 (   309 PWs)   bands (ev):

    22.8579  28.1851  31.4174  48.4466  55.4477  70.8829

          k = 0.0000 0.8889 0.0000 (   310 PWs)   bands (ev):

    21.9392  28.5766  34.2309  47.5651  47.5651  67.2447

          k = 0.8889 0.0000 0.8889 (   310 PWs)   bands (ev):

    24.7185  26.0652  32.7694  47.5848  48.6870  68.3751

          k =-0.2222 0.4444 0.0000 (   306 PWs)   bands (ev):

    13.0303  37.3375  43.0442  51.3647  53.9168  67.9222

          k =-0.3333 0.5556-0.1111 (   314 PWs)   bands (ev):

    16.3293  31.9911  39.7058  49.2389  57.5857  66.5512

          k = 0.5556-0.3333 0.7778 (   305 PWs)   bands (ev):

    20.3682  26.4762  38.6345  47.9649  60.9574  64.4616

          k =-0.2222 0.6667 0.0000 (   308 PWs)   bands (ev):

    17.3423  33.9105  35.9118  47.3554  52.4931  71.4778

          k = 0.6667-0.2222 0.8889 (   309 PWs)   bands (ev):

    20.9670  29.4312  33.6678  46.1545  56.0304  70.4334

          k = 0.5556-0.1111 0.7778 (   307 PWs)   bands (ev):

    23.1067  27.0278  32.8832  46.1791  59.5572  66.5395

          k = 0.4444 0.0000 0.6667 (   311 PWs)   bands (ev):

    19.6667  30.5071  34.0030  47.4807  61.6782  63.2613

          k = 0.7778-0.1111 1.0000 (   310 PWs)   bands (ev):

    22.6281  28.9157  32.1633  45.8675  51.7940  69.7862

          k = 0.6667-0.0000 0.8889 (   304 PWs)   bands (ev):

    25.2850  27.0624  30.3429  45.1336  55.5062  72.8056

          k = 0.5556-0.1111 1.0000 (   307 PWs)   bands (ev):

    24.2866  29.1425  29.4493  43.9165  61.0839  66.0472

     the Fermi energy is    29.3872 ev

!    total energy              =     -38.26545575 Ry

     total all-electron energy =      -484.408236 Ry
     estimated scf accuracy    <          6.9E-10 Ry
     smearing contrib. (-TS)   =      -0.00125537 Ry
     internal energy E=F+TS    =     -38.26420038 Ry

     The total energy is F=E-TS. E is the sum of the following terms:
     one-electron contribution =       8.63408257 Ry
     hartree contribution      =       0.03897581 Ry
     xc contribution           =      -3.59135342 Ry
     ewald contribution        =      -8.25275173 Ry
     one-center paw contrib.   =     -35.09315361 Ry

     convergence has been achieved in   5 iterations

     Forces acting on atoms (cartesian axes, Ry/au):

     atom    1 type  1   force =     0.00000000    0.00000000    0.00000000

     Total force =     0.000000     Total SCF correction =     0.000000


     Computing stress (Cartesian axis) and pressure

          total   stress  (Ry/bohr**3)                   (kbar)     P=    13110.78
   0.08912530   0.00000000   0.00000000        13110.78        0.00        0.00
   0.00000000   0.08912530   0.00000000            0.00    13110.78        0.00
   0.00000000   0.00000000   0.08912530            0.00        0.00    13110.78


     Writing output data file ./Al.save/

     init_run     :      1.27s CPU      0.48s WALL (       1 calls)
     electrons    :     12.45s CPU      1.56s WALL (       1 calls)
     forces       :      0.14s CPU      0.02s WALL (       1 calls)
     stress       :      1.20s CPU      0.14s WALL (       1 calls)

     Called by init_run:
     wfcinit      :      0.31s CPU      0.04s WALL (       1 calls)
     potinit      :      0.10s CPU      0.10s WALL (       1 calls)
     hinit0       :      0.81s CPU      0.32s WALL (       1 calls)

     Called by electrons:
     c_bands      :      5.87s CPU      0.71s WALL (       6 calls)
     sum_band     :      1.09s CPU      0.14s WALL (       6 calls)
     v_of_rho     :      0.11s CPU      0.02s WALL (       6 calls)
     newd         :      0.04s CPU      0.02s WALL (       6 calls)
     PAW_pot      :      5.40s CPU      0.79s WALL (       6 calls)
     mix_rho      :      0.01s CPU      0.00s WALL (       6 calls)

     Called by c_bands:
     init_us_2    :      0.54s CPU      0.06s WALL (     525 calls)
     cegterg      :      5.16s CPU      0.62s WALL (     210 calls)

     Called by *egterg:
     cdiaghg      :      0.50s CPU      0.06s WALL (     809 calls)
     h_psi        :      3.54s CPU      0.44s WALL (     879 calls)
     s_psi        :      0.51s CPU      0.06s WALL (     879 calls)
     g_psi        :      0.05s CPU      0.01s WALL (     634 calls)

     Called by h_psi:
     h_psi:calbec :      0.28s CPU      0.03s WALL (     879 calls)
     vloc_psi     :      2.65s CPU      0.33s WALL (     879 calls)
     add_vuspsi   :      0.48s CPU      0.06s WALL (     879 calls)

     General routines
     calbec       :      0.35s CPU      0.04s WALL (    1264 calls)
     fft          :      0.03s CPU      0.00s WALL (      92 calls)
     ffts         :      0.00s CPU      0.00s WALL (       6 calls)
     fftw         :      2.24s CPU      0.28s WALL (    8670 calls)

     Parallel routines

     PWSCF        :     15.52s CPU      2.35s WALL


   This run was terminated on:  15:21:20  22Feb2022            

=------------------------------------------------------------------------------=
   JOB DONE.
=------------------------------------------------------------------------------=
