
     Program PWSCF v.6.7MaX starts on 22Feb2022 at 15:21: 9 

     This program is part of the open-source Quantum ESPRESSO suite
     for quantum simulation of materials; please cite
         "P. Giannozzi et al., J. Phys.:Condens. Matter 21 395502 (2009);
         "P. Giannozzi et al., J. Phys.:Condens. Matter 29 465901 (2017);
          URL http://www.quantum-espresso.org", 
     in publications or presentations arising from this work. More details at
     http://www.quantum-espresso.org/quote

     Parallel version (MPI), running on     1 processors

     MPI processes distributed on     1 nodes
     Waiting for input...
     Reading input from standard input
Warning: card &CELL ignored
Warning: card 	CELL_DYNAMICS = 'BFGS' ignored
Warning: card / ignored

     Current dimensions of program PWSCF are:
     Max number of different atomic species (ntypx) = 10
     Max number of k-points (npk) =  40000
     Max angular momentum in pseudopotentials (lmaxx) =  3
     file Al.pbe-n-kjpaw_psl.1.0.0.UPF: wavefunction(s)  3S 3P renormalized

     Subspace diagonalization in iterative solution of the eigenvalue problem:
     a serial algorithm will be used


     G-vector sticks info
     --------------------
     sticks:   dense  smooth     PW     G-vecs:    dense   smooth      PW
     Sum         241     241     85                 2445     2445     531



     bravais-lattice index     =            2
     lattice parameter (alat)  =       5.0000  a.u.
     unit-cell volume          =      31.2500 (a.u.)^3
     number of atoms/cell      =            1
     number of atomic types    =            1
     number of electrons       =         3.00
     number of Kohn-Sham states=            6
     kinetic-energy cutoff     =      70.0000  Ry
     charge density cutoff     =     280.0000  Ry
     scf convergence threshold =      1.0E-08
     mixing beta               =       0.7000
     number of iterations used =            8  plain     mixing
     Exchange-correlation= SLA  PW   PBX  PBC
                           (   1   4   3   4   0   0   0)

     celldm(1)=   5.000000  celldm(2)=   0.000000  celldm(3)=   0.000000
     celldm(4)=   0.000000  celldm(5)=   0.000000  celldm(6)=   0.000000

     crystal axes: (cart. coord. in units of alat)
               a(1) = (  -0.500000   0.000000   0.500000 )  
               a(2) = (   0.000000   0.500000   0.500000 )  
               a(3) = (  -0.500000   0.500000   0.000000 )  

     reciprocal axes: (cart. coord. in units 2 pi/alat)
               b(1) = ( -1.000000 -1.000000  1.000000 )  
               b(2) = (  1.000000  1.000000  1.000000 )  
               b(3) = ( -1.000000  1.000000 -1.000000 )  


     PseudoPot. # 1 for Al read from file:
     ./Al.pbe-n-kjpaw_psl.1.0.0.UPF
     MD5 check sum: 502b6b27b9c6270cab5dd1084b96fa6d
     Pseudo is Projector augmented-wave + core cor, Zval =  3.0
     Generated using &quot;atomic&quot; code by A. Dal Corso  v.6.3
     Shape of augmentation charge: PSQ
     Using radial grid of 1135 points,  6 beta functions with: 
                l(1) =   0
                l(2) =   0
                l(3) =   1
                l(4) =   1
                l(5) =   2
                l(6) =   2
     Q(r) pseudized with 0 coefficients 


     atomic species   valence    mass     pseudopotential
        Al             3.00    26.98100     Al( 1.00)

     48 Sym. Ops., with inversion, found



   Cartesian axes

     site n.     atom                  positions (alat units)
         1           Al  tau(   1) = (   0.0000000   0.0000000   0.0000000  )

     number of k points=    10  Methfessel-Paxton smearing, width (Ry)=  0.0500
                       cart. coord. in units 2pi/alat
        k(    1) = (   0.0000000   0.0000000   0.0000000), wk =   0.0160000
        k(    2) = (  -0.2000000   0.2000000  -0.2000000), wk =   0.1280000
        k(    3) = (  -0.4000000   0.4000000  -0.4000000), wk =   0.1280000
        k(    4) = (   0.0000000   0.4000000   0.0000000), wk =   0.0960000
        k(    5) = (  -0.2000000   0.6000000  -0.2000000), wk =   0.3840000
        k(    6) = (   0.6000000  -0.2000000   0.6000000), wk =   0.3840000
        k(    7) = (   0.4000000   0.0000000   0.4000000), wk =   0.1920000
        k(    8) = (   0.0000000   0.8000000   0.0000000), wk =   0.0960000
        k(    9) = (   0.8000000   0.0000000   0.8000000), wk =   0.1920000
        k(   10) = (   0.6000000  -0.2000000   1.0000000), wk =   0.3840000

     Dense  grid:     2445 G-vectors     FFT dimensions: (  20,  20,  20)

     Estimated max dynamical RAM per process >      10.80 MB

     Initial potential from superposition of free atoms

     starting charge    2.99771, renormalised to    3.00000
     Starting wfcs are    4 randomized atomic wfcs +    2 random wfcs
     Checking if some PAW data can be deallocated... 

     total cpu time spent up to now is        0.6 secs

     Self-consistent Calculation

     iteration #  1     ecut=    70.00 Ry     beta= 0.70
     Davidson diagonalization with overlap
     ethr =  1.00E-02,  avg # of iterations =  6.0

     Threshold (ethr) on eigenvalues was too large:
     Diagonalizing with lowered threshold

     Davidson diagonalization with overlap
     ethr =  4.49E-04,  avg # of iterations =  1.5

     total cpu time spent up to now is        0.8 secs

     total energy              =     -38.25819630 Ry
     estimated scf accuracy    <       0.01348862 Ry

     iteration #  2     ecut=    70.00 Ry     beta= 0.70
     Davidson diagonalization with overlap
     ethr =  4.50E-04,  avg # of iterations =  1.8

     total cpu time spent up to now is        1.0 secs

     total energy              =     -38.26012058 Ry
     estimated scf accuracy    <       0.00163992 Ry

     iteration #  3     ecut=    70.00 Ry     beta= 0.70
     Davidson diagonalization with overlap
     ethr =  5.47E-05,  avg # of iterations =  3.4

     total cpu time spent up to now is        1.2 secs

     total energy              =     -38.26035447 Ry
     estimated scf accuracy    <       0.00000121 Ry

     iteration #  4     ecut=    70.00 Ry     beta= 0.70
     Davidson diagonalization with overlap
     ethr =  4.05E-08,  avg # of iterations =  4.6

     total cpu time spent up to now is        1.4 secs

     total energy              =     -38.26035465 Ry
     estimated scf accuracy    <       0.00000005 Ry

     iteration #  5     ecut=    70.00 Ry     beta= 0.70
     Davidson diagonalization with overlap
     ethr =  1.71E-09,  avg # of iterations =  2.6

     total cpu time spent up to now is        1.6 secs

     End of self-consistent calculation

          k = 0.0000 0.0000 0.0000 (   331 PWs)   bands (ev):

     8.0945  52.0722  52.0722  52.0722  60.6849  69.1730

          k =-0.2000 0.2000-0.2000 (   311 PWs)   bands (ev):

    10.5801  39.8219  51.8799  51.8799  61.2367  62.6075

          k =-0.4000 0.4000-0.4000 (   311 PWs)   bands (ev):

    17.1635  27.2570  49.4630  49.4630  57.9103  64.7948

          k = 0.0000 0.4000 0.0000 (   303 PWs)   bands (ev):

    11.3621  41.7334  48.2371  49.4042  49.4042  72.1842

          k =-0.2000 0.6000-0.2000 (   316 PWs)   bands (ev):

    16.4540  32.0658  40.2052  48.3333  53.8964  71.9927

          k = 0.6000-0.2000 0.6000 (   307 PWs)   bands (ev):

    21.1812  25.7868  37.7176  48.8806  58.9380  67.5293

          k = 0.4000 0.0000 0.4000 (   311 PWs)   bands (ev):

    14.3701  34.7544  40.4958  52.7766  58.9835  63.1201

          k = 0.0000 0.8000 0.0000 (   322 PWs)   bands (ev):

    19.6566  31.4817  34.8541  47.6690  47.6690  67.9018

          k = 0.8000 0.0000 0.8000 (   310 PWs)   bands (ev):

    24.9794  26.6420  31.0848  47.7627  50.9220  71.2153

          k = 0.6000-0.2000 1.0000 (   305 PWs)   bands (ev):

    21.9469  30.1046  31.3950  45.0452  59.2014  67.2233

     the Fermi energy is    30.3871 ev

!    total energy              =     -38.26035477 Ry

     total all-electron energy =      -484.403135 Ry
     estimated scf accuracy    <          3.8E-09 Ry
     smearing contrib. (-TS)   =       0.00033237 Ry
     internal energy E=F+TS    =     -38.26068714 Ry

     The total energy is F=E-TS. E is the sum of the following terms:
     one-electron contribution =       8.64219496 Ry
     hartree contribution      =       0.03777955 Ry
     xc contribution           =      -3.59224220 Ry
     ewald contribution        =      -8.25275173 Ry
     one-center paw contrib.   =     -35.09566771 Ry

     convergence has been achieved in   5 iterations

     Forces acting on atoms (cartesian axes, Ry/au):

     atom    1 type  1   force =     0.00000000    0.00000000    0.00000000

     Total force =     0.000000     Total SCF correction =     0.000000


     Computing stress (Cartesian axis) and pressure

          total   stress  (Ry/bohr**3)                   (kbar)     P=    13158.69
   0.08945099   0.00000000   0.00000000        13158.69        0.00        0.00
   0.00000000   0.08945099   0.00000000            0.00    13158.69        0.00
   0.00000000   0.00000000   0.08945099            0.00        0.00    13158.69


     Writing output data file ./Al.save/

     init_run     :      1.19s CPU      0.46s WALL (       1 calls)
     electrons    :      7.07s CPU      1.00s WALL (       1 calls)
     forces       :      0.10s CPU      0.01s WALL (       1 calls)
     stress       :      0.79s CPU      0.08s WALL (       1 calls)

     Called by init_run:
     wfcinit      :      0.10s CPU      0.01s WALL (       1 calls)
     potinit      :      0.10s CPU      0.10s WALL (       1 calls)
     hinit0       :      0.88s CPU      0.30s WALL (       1 calls)

     Called by electrons:
     c_bands      :      1.53s CPU      0.21s WALL (       6 calls)
     sum_band     :      0.53s CPU      0.07s WALL (       6 calls)
     v_of_rho     :      0.07s CPU      0.02s WALL (       6 calls)
     newd         :      0.05s CPU      0.03s WALL (       6 calls)
     PAW_pot      :      4.97s CPU      0.80s WALL (       6 calls)
     mix_rho      :      0.01s CPU      0.00s WALL (       6 calls)

     Called by c_bands:
     init_us_2    :      0.14s CPU      0.02s WALL (     150 calls)
     cegterg      :      1.36s CPU      0.18s WALL (      60 calls)

     Called by *egterg:
     cdiaghg      :      0.14s CPU      0.02s WALL (     249 calls)
     h_psi        :      0.94s CPU      0.13s WALL (     269 calls)
     s_psi        :      0.13s CPU      0.02s WALL (     269 calls)
     g_psi        :      0.01s CPU      0.00s WALL (     199 calls)

     Called by h_psi:
     h_psi:calbec :      0.07s CPU      0.01s WALL (     269 calls)
     vloc_psi     :      0.71s CPU      0.10s WALL (     269 calls)
     add_vuspsi   :      0.12s CPU      0.02s WALL (     269 calls)

     General routines
     calbec       :      0.09s CPU      0.01s WALL (     379 calls)
     fft          :      0.02s CPU      0.00s WALL (      92 calls)
     ffts         :      0.00s CPU      0.00s WALL (       6 calls)
     fftw         :      0.60s CPU      0.08s WALL (    2514 calls)

     Parallel routines

     PWSCF        :      9.48s CPU      1.68s WALL


   This run was terminated on:  15:21:10  22Feb2022            

=------------------------------------------------------------------------------=
   JOB DONE.
=------------------------------------------------------------------------------=
