
     Program PWSCF v.6.7MaX starts on 22Feb2022 at 15:21:11 

     This program is part of the open-source Quantum ESPRESSO suite
     for quantum simulation of materials; please cite
         "P. Giannozzi et al., J. Phys.:Condens. Matter 21 395502 (2009);
         "P. Giannozzi et al., J. Phys.:Condens. Matter 29 465901 (2017);
          URL http://www.quantum-espresso.org", 
     in publications or presentations arising from this work. More details at
     http://www.quantum-espresso.org/quote

     Parallel version (MPI), running on     1 processors

     MPI processes distributed on     1 nodes
     Waiting for input...
     Reading input from standard input
Warning: card &CELL ignored
Warning: card 	CELL_DYNAMICS = 'BFGS' ignored
Warning: card / ignored

     Current dimensions of program PWSCF are:
     Max number of different atomic species (ntypx) = 10
     Max number of k-points (npk) =  40000
     Max angular momentum in pseudopotentials (lmaxx) =  3
     file Al.pbe-n-kjpaw_psl.1.0.0.UPF: wavefunction(s)  3S 3P renormalized

     Subspace diagonalization in iterative solution of the eigenvalue problem:
     a serial algorithm will be used


     G-vector sticks info
     --------------------
     sticks:   dense  smooth     PW     G-vecs:    dense   smooth      PW
     Sum         241     241     85                 2445     2445     531



     bravais-lattice index     =            2
     lattice parameter (alat)  =       5.0000  a.u.
     unit-cell volume          =      31.2500 (a.u.)^3
     number of atoms/cell      =            1
     number of atomic types    =            1
     number of electrons       =         3.00
     number of Kohn-Sham states=            6
     kinetic-energy cutoff     =      70.0000  Ry
     charge density cutoff     =     280.0000  Ry
     scf convergence threshold =      1.0E-08
     mixing beta               =       0.7000
     number of iterations used =            8  plain     mixing
     Exchange-correlation= SLA  PW   PBX  PBC
                           (   1   4   3   4   0   0   0)

     celldm(1)=   5.000000  celldm(2)=   0.000000  celldm(3)=   0.000000
     celldm(4)=   0.000000  celldm(5)=   0.000000  celldm(6)=   0.000000

     crystal axes: (cart. coord. in units of alat)
               a(1) = (  -0.500000   0.000000   0.500000 )  
               a(2) = (   0.000000   0.500000   0.500000 )  
               a(3) = (  -0.500000   0.500000   0.000000 )  

     reciprocal axes: (cart. coord. in units 2 pi/alat)
               b(1) = ( -1.000000 -1.000000  1.000000 )  
               b(2) = (  1.000000  1.000000  1.000000 )  
               b(3) = ( -1.000000  1.000000 -1.000000 )  


     PseudoPot. # 1 for Al read from file:
     ./Al.pbe-n-kjpaw_psl.1.0.0.UPF
     MD5 check sum: 502b6b27b9c6270cab5dd1084b96fa6d
     Pseudo is Projector augmented-wave + core cor, Zval =  3.0
     Generated using &quot;atomic&quot; code by A. Dal Corso  v.6.3
     Shape of augmentation charge: PSQ
     Using radial grid of 1135 points,  6 beta functions with: 
                l(1) =   0
                l(2) =   0
                l(3) =   1
                l(4) =   1
                l(5) =   2
                l(6) =   2
     Q(r) pseudized with 0 coefficients 


     atomic species   valence    mass     pseudopotential
        Al             3.00    26.98100     Al( 1.00)

     48 Sym. Ops., with inversion, found



   Cartesian axes

     site n.     atom                  positions (alat units)
         1           Al  tau(   1) = (   0.0000000   0.0000000   0.0000000  )

     number of k points=    16  Methfessel-Paxton smearing, width (Ry)=  0.0500
                       cart. coord. in units 2pi/alat
        k(    1) = (   0.0000000   0.0000000   0.0000000), wk =   0.0092593
        k(    2) = (  -0.1666667   0.1666667  -0.1666667), wk =   0.0740741
        k(    3) = (  -0.3333333   0.3333333  -0.3333333), wk =   0.0740741
        k(    4) = (   0.5000000  -0.5000000   0.5000000), wk =   0.0370370
        k(    5) = (   0.0000000   0.3333333   0.0000000), wk =   0.0555556
        k(    6) = (  -0.1666667   0.5000000  -0.1666667), wk =   0.2222222
        k(    7) = (   0.6666667  -0.3333333   0.6666667), wk =   0.2222222
        k(    8) = (   0.5000000  -0.1666667   0.5000000), wk =   0.2222222
        k(    9) = (   0.3333333   0.0000000   0.3333333), wk =   0.1111111
        k(   10) = (   0.0000000   0.6666667   0.0000000), wk =   0.0555556
        k(   11) = (   0.8333333  -0.1666667   0.8333333), wk =   0.2222222
        k(   12) = (   0.6666667  -0.0000000   0.6666667), wk =   0.1111111
        k(   13) = (   0.0000000  -1.0000000   0.0000000), wk =   0.0277778
        k(   14) = (   0.6666667  -0.3333333   1.0000000), wk =   0.2222222
        k(   15) = (   0.5000000  -0.1666667   0.8333333), wk =   0.2222222
        k(   16) = (  -0.3333333  -1.0000000   0.0000000), wk =   0.1111111

     Dense  grid:     2445 G-vectors     FFT dimensions: (  20,  20,  20)

     Estimated max dynamical RAM per process >      10.97 MB

     Initial potential from superposition of free atoms

     starting charge    2.99771, renormalised to    3.00000
     Starting wfcs are    4 randomized atomic wfcs +    2 random wfcs
     Checking if some PAW data can be deallocated... 

     total cpu time spent up to now is        0.5 secs

     Self-consistent Calculation

     iteration #  1     ecut=    70.00 Ry     beta= 0.70
     Davidson diagonalization with overlap
     ethr =  1.00E-02,  avg # of iterations =  6.6

     Threshold (ethr) on eigenvalues was too large:
     Diagonalizing with lowered threshold

     Davidson diagonalization with overlap
     ethr =  4.62E-04,  avg # of iterations =  1.1

     total cpu time spent up to now is        0.8 secs

     total energy              =     -38.26855430 Ry
     estimated scf accuracy    <       0.01383547 Ry

     iteration #  2     ecut=    70.00 Ry     beta= 0.70
     Davidson diagonalization with overlap
     ethr =  4.61E-04,  avg # of iterations =  2.0

     total cpu time spent up to now is        1.0 secs

     total energy              =     -38.27043281 Ry
     estimated scf accuracy    <       0.00165574 Ry

     iteration #  3     ecut=    70.00 Ry     beta= 0.70
     Davidson diagonalization with overlap
     ethr =  5.52E-05,  avg # of iterations =  2.6

     total cpu time spent up to now is        1.2 secs

     total energy              =     -38.27066307 Ry
     estimated scf accuracy    <       0.00000246 Ry

     iteration #  4     ecut=    70.00 Ry     beta= 0.70
     Davidson diagonalization with overlap
     c_bands:  1 eigenvalues not converged
     ethr =  8.19E-08,  avg # of iterations =  4.6

     total cpu time spent up to now is        1.4 secs

     total energy              =     -38.27066517 Ry
     estimated scf accuracy    <       0.00000013 Ry

     iteration #  5     ecut=    70.00 Ry     beta= 0.70
     Davidson diagonalization with overlap
     ethr =  4.43E-09,  avg # of iterations =  1.7

     total cpu time spent up to now is        1.6 secs

     End of self-consistent calculation

          k = 0.0000 0.0000 0.0000 (   331 PWs)   bands (ev):

     8.0982  52.0614  52.0614  52.0614  60.6619  69.1887

          k =-0.1667 0.1667-0.1667 (   311 PWs)   bands (ev):

     9.8421  42.1937  52.0670  52.0670  62.1886  63.0178

          k =-0.3333 0.3333-0.3333 (   308 PWs)   bands (ev):

    14.6264  31.0680  50.2376  50.2376  58.5528  63.6427

          k = 0.5000-0.5000 0.5000 (   302 PWs)   bands (ev):

    20.5354  23.1843  48.9792  48.9792  57.6321  65.6491

          k = 0.0000 0.3333 0.0000 (   307 PWs)   bands (ev):

    10.4004  43.4902  49.9324  49.9324  51.6513  71.1719

          k =-0.1667 0.5000-0.1667 (   313 PWs)   bands (ev):

    14.1057  35.0030  43.6020  48.8153  54.0082  70.6760

          k = 0.6667-0.3333 0.6667 (   307 PWs)   bands (ev):

    20.0305  26.0869  40.4282  48.4402  58.1545  69.1998

          k = 0.5000-0.1667 0.5000 (   308 PWs)   bands (ev):

    17.9145  28.8540  39.9020  50.1094  61.7318  63.5785

          k = 0.3333 0.0000 0.3333 (   311 PWs)   bands (ev):

    12.5709  37.2523  43.4449  54.7112  56.8728  63.4485

          k = 0.0000 0.6667 0.0000 (   310 PWs)   bands (ev):

    16.5018  36.3818  36.3830  47.9744  47.9744  69.3822

          k = 0.8333-0.1667 0.8333 (   311 PWs)   bands (ev):

    21.3211  29.8574  32.8735  47.7496  50.4406  70.5117

          k = 0.6667-0.0000 0.6667 (   309 PWs)   bands (ev):

    22.8545  28.1898  31.4147  48.4463  55.4507  70.8873

          k = 0.0000-1.0000 0.0000 (   302 PWs)   bands (ev):

    24.4014  25.8290  33.9672  47.5245  47.5245  66.9409

          k = 0.6667-0.3333 1.0000 (   311 PWs)   bands (ev):

    18.3438  32.1156  35.1493  47.1681  56.7814  68.3446

          k = 0.5000-0.1667 0.8333 (   312 PWs)   bands (ev):

    23.2020  26.7199  33.3056  45.5685  62.1727  63.8584

          k =-0.3333-1.0000 0.0000 (   308 PWs)   bands (ev):

    25.5657  26.9295  30.3901  44.2953  55.9393  72.1433

     the Fermi energy is    29.5885 ev

!    total energy              =     -38.27066519 Ry

     total all-electron energy =      -484.413445 Ry
     estimated scf accuracy    <          1.1E-09 Ry
     smearing contrib. (-TS)   =       0.00020808 Ry
     internal energy E=F+TS    =     -38.27087327 Ry

     The total energy is F=E-TS. E is the sum of the following terms:
     one-electron contribution =       8.62978145 Ry
     hartree contribution      =       0.03843616 Ry
     xc contribution           =      -3.59150023 Ry
     ewald contribution        =      -8.25275173 Ry
     one-center paw contrib.   =     -35.09483891 Ry

     convergence has been achieved in   5 iterations

     Forces acting on atoms (cartesian axes, Ry/au):

     atom    1 type  1   force =     0.00000000    0.00000000    0.00000000

     Total force =     0.000000     Total SCF correction =     0.000000


     Computing stress (Cartesian axis) and pressure

          total   stress  (Ry/bohr**3)                   (kbar)     P=    13142.12
   0.08933835   0.00000000  -0.00000000        13142.12        0.00       -0.00
   0.00000000   0.08933835   0.00000000            0.00    13142.12        0.00
  -0.00000000   0.00000000   0.08933835           -0.00        0.00    13142.12


     Writing output data file ./Al.save/

     init_run     :      0.94s CPU      0.41s WALL (       1 calls)
     electrons    :      7.98s CPU      1.11s WALL (       1 calls)
     forces       :      0.13s CPU      0.02s WALL (       1 calls)
     stress       :      0.80s CPU      0.10s WALL (       1 calls)

     Called by init_run:
     wfcinit      :      0.09s CPU      0.02s WALL (       1 calls)
     potinit      :      0.09s CPU      0.10s WALL (       1 calls)
     hinit0       :      0.72s CPU      0.27s WALL (       1 calls)

     Called by electrons:
     c_bands      :      2.35s CPU      0.32s WALL (       6 calls)
     sum_band     :      0.67s CPU      0.10s WALL (       6 calls)
     v_of_rho     :      0.13s CPU      0.02s WALL (       6 calls)
     newd         :      0.04s CPU      0.02s WALL (       6 calls)
     PAW_pot      :      4.83s CPU      0.75s WALL (       6 calls)
     mix_rho      :      0.01s CPU      0.00s WALL (       6 calls)

     Called by c_bands:
     init_us_2    :      0.22s CPU      0.03s WALL (     240 calls)
     cegterg      :      2.08s CPU      0.29s WALL (      96 calls)

     Called by *egterg:
     cdiaghg      :      0.21s CPU      0.03s WALL (     376 calls)
     h_psi        :      1.45s CPU      0.20s WALL (     408 calls)
     s_psi        :      0.18s CPU      0.02s WALL (     408 calls)
     g_psi        :      0.02s CPU      0.00s WALL (     296 calls)

     Called by h_psi:
     h_psi:calbec :      0.22s CPU      0.03s WALL (     408 calls)
     vloc_psi     :      1.02s CPU      0.14s WALL (     408 calls)
     add_vuspsi   :      0.17s CPU      0.02s WALL (     408 calls)

     General routines
     calbec       :      0.31s CPU      0.05s WALL (     584 calls)
     fft          :      0.02s CPU      0.00s WALL (      92 calls)
     ffts         :      0.00s CPU      0.00s WALL (       6 calls)
     fftw         :      0.88s CPU      0.12s WALL (    3958 calls)

     Parallel routines

     PWSCF        :     10.22s CPU      1.77s WALL


   This run was terminated on:  15:21:12  22Feb2022            

=------------------------------------------------------------------------------=
   JOB DONE.
=------------------------------------------------------------------------------=
