
     Program PWSCF v.6.7MaX starts on 23Feb2022 at 18:14: 1 

     This program is part of the open-source Quantum ESPRESSO suite
     for quantum simulation of materials; please cite
         "P. Giannozzi et al., J. Phys.:Condens. Matter 21 395502 (2009);
         "P. Giannozzi et al., J. Phys.:Condens. Matter 29 465901 (2017);
          URL http://www.quantum-espresso.org", 
     in publications or presentations arising from this work. More details at
     http://www.quantum-espresso.org/quote

     Parallel version (MPI), running on    36 processors

     MPI processes distributed on     1 nodes
     R & G space division:  proc/nbgrp/npool/nimage =      36
     Waiting for input...
     Reading input from standard input

     Current dimensions of program PWSCF are:
     Max number of different atomic species (ntypx) = 10
     Max number of k-points (npk) =  40000
     Max angular momentum in pseudopotentials (lmaxx) =  3

     Subspace diagonalization in iterative solution of the eigenvalue problem:
     a serial algorithm will be used

     Message from routine setup:
     using ibrav=0 with symmetry is DISCOURAGED, use correct ibrav instead

     Parallelization info
     --------------------
     sticks:   dense  smooth     PW     G-vecs:    dense   smooth      PW
     Min         264     264     70                19398    19398    2658
     Max         265     265     71                19400    19400    2663
     Sum        9517    9517   2537               698355   698355   95769



     bravais-lattice index     =            0
     lattice parameter (alat)  =      20.6660  a.u.
     unit-cell volume          =    8826.0878 (a.u.)^3
     number of atoms/cell      =           42
     number of atomic types    =            1
     number of electrons       =       168.00
     number of Kohn-Sham states=           84
     kinetic-energy cutoff     =      70.0000  Ry
     charge density cutoff     =     280.0000  Ry
     scf convergence threshold =      1.0E-06
     mixing beta               =       0.7000
     number of iterations used =            8  plain     mixing
     Exchange-correlation=  SLA  PW   PBE  PBE
                           (   1   4   3   4   0   0   0)

     celldm(1)=  20.665984  celldm(2)=   0.000000  celldm(3)=   0.000000
     celldm(4)=   0.000000  celldm(5)=   0.000000  celldm(6)=   0.000000

     crystal axes: (cart. coord. in units of alat)
               a(1) = (   1.000000   0.000000   0.000000 )  
               a(2) = (   0.000000   1.000000   0.000000 )  
               a(3) = (   0.000000   0.000000   1.000000 )  

     reciprocal axes: (cart. coord. in units 2 pi/alat)
               b(1) = (  1.000000  0.000000  0.000000 )  
               b(2) = (  0.000000  1.000000  0.000000 )  
               b(3) = (  0.000000  0.000000  1.000000 )  


     PseudoPot. # 1 for Si read from file:
     ./Si.pbe-rrkj.UPF
     MD5 check sum: cf7ab5690cd9a85b22c4813f7e365554
     Pseudo is Norm-conserving, Zval =  4.0
     Generated by new atomic code, or converted to UPF format
     Using radial grid of  883 points,  3 beta functions with: 
                l(1) =   0
                l(2) =   0
                l(3) =   1

     atomic species   valence    mass     pseudopotential
        Si             4.00    28.08600     Si( 1.00)

      4 Sym. Ops. (no inversion) found



   Cartesian axes

     site n.     atom                  positions (alat units)
         1           Si  tau(   1) = (   0.2500000   0.2500000   0.0000000  )
         2           Si  tau(   2) = (   0.7500000   0.2500000   0.0000000  )
         3           Si  tau(   3) = (   0.2500000   0.7500000   0.0000000  )
         4           Si  tau(   4) = (   0.7500000   0.7500000   0.0000000  )
         5           Si  tau(   5) = (   0.2500000   0.2500000   0.5000000  )
         6           Si  tau(   6) = (   0.7500000   0.2500000   0.5000000  )
         7           Si  tau(   7) = (   0.2500000   0.7500000   0.5000000  )
         8           Si  tau(   8) = (   0.7500000   0.7500000   0.5000000  )
         9           Si  tau(   9) = (   0.5000000   0.5000000   0.0000000  )
        10           Si  tau(  10) = (   0.5000000   0.5000000   0.5000000  )
        11           Si  tau(  11) = (   0.2500000   0.5000000   0.2500000  )
        12           Si  tau(  12) = (   0.7500000   0.5000000   0.2500000  )
        13           Si  tau(  13) = (   0.2500000   0.5000000   0.7500000  )
        14           Si  tau(  14) = (   0.7500000   0.5000000   0.7500000  )
        15           Si  tau(  15) = (   0.5000000   0.2500000   0.2500000  )
        16           Si  tau(  16) = (   0.5000000   0.7500000   0.2500000  )
        17           Si  tau(  17) = (   0.5000000   0.2500000   0.7500000  )
        18           Si  tau(  18) = (   0.5000000   0.7500000   0.7500000  )
        19           Si  tau(  19) = (   0.3750000   0.3750000   0.1250000  )
        20           Si  tau(  20) = (   0.8750000   0.3750000   0.1250000  )
        21           Si  tau(  21) = (   0.3750000   0.8750000   0.1250000  )
        22           Si  tau(  22) = (   0.8750000   0.8750000   0.1250000  )
        23           Si  tau(  23) = (   0.3750000   0.3750000   0.6250000  )
        24           Si  tau(  24) = (   0.8750000   0.3750000   0.6250000  )
        25           Si  tau(  25) = (   0.3750000   0.8750000   0.6250000  )
        26           Si  tau(  26) = (   0.8750000   0.8750000   0.6250000  )
        27           Si  tau(  27) = (   0.1250000   0.1250000   0.1250000  )
        28           Si  tau(  28) = (   0.6250000   0.1250000   0.1250000  )
        29           Si  tau(  29) = (   0.1250000   0.6250000   0.1250000  )
        30           Si  tau(  30) = (   0.6250000   0.6250000   0.1250000  )
        31           Si  tau(  31) = (   0.1250000   0.1250000   0.6250000  )
        32           Si  tau(  32) = (   0.6250000   0.1250000   0.6250000  )
        33           Si  tau(  33) = (   0.1250000   0.6250000   0.6250000  )
        34           Si  tau(  34) = (   0.6250000   0.6250000   0.6250000  )
        35           Si  tau(  35) = (   0.3750000   0.1250000   0.3750000  )
        36           Si  tau(  36) = (   0.8750000   0.1250000   0.3750000  )
        37           Si  tau(  37) = (   0.3750000   0.6250000   0.3750000  )
        38           Si  tau(  38) = (   0.8750000   0.6250000   0.3750000  )
        39           Si  tau(  39) = (   0.1250000   0.3750000   0.3750000  )
        40           Si  tau(  40) = (   0.6250000   0.3750000   0.3750000  )
        41           Si  tau(  41) = (   0.1250000   0.8750000   0.3750000  )
        42           Si  tau(  42) = (   0.6250000   0.8750000   0.3750000  )

     number of k points=     8
                       cart. coord. in units 2pi/alat
        k(    1) = (   0.1666667   0.1666667   0.1666667), wk =   0.2962963
        k(    2) = (   0.1666667   0.1666667  -0.5000000), wk =   0.1481481
        k(    3) = (   0.1666667  -0.5000000  -0.5000000), wk =   0.2962963
        k(    4) = (  -0.5000000  -0.5000000  -0.5000000), wk =   0.0740741
        k(    5) = (   0.1666667  -0.1666667   0.1666667), wk =   0.2962963
        k(    6) = (   0.1666667  -0.1666667  -0.5000000), wk =   0.1481481
        k(    7) = (  -0.5000000  -0.1666667   0.1666667), wk =   0.5925926
        k(    8) = (  -0.5000000   0.5000000   0.1666667), wk =   0.1481481

     Dense  grid:   698355 G-vectors     FFT dimensions: ( 120, 120, 120)

     Estimated max dynamical RAM per process >      61.97 MB

     Estimated total dynamical RAM >       2.18 GB

     Initial potential from superposition of free atoms

     starting charge  167.97676, renormalised to  168.00000
     Starting wfcs are  168 randomized atomic wfcs

     total cpu time spent up to now is       15.8 secs

     Self-consistent Calculation

     iteration #  1     ecut=    70.00 Ry     beta= 0.70
     Davidson diagonalization with overlap
     ethr =  1.00E-02,  avg # of iterations =  2.0

     Threshold (ethr) on eigenvalues was too large:
     Diagonalizing with lowered threshold

     Davidson diagonalization with overlap
     ethr =  8.49E-04,  avg # of iterations =  3.2

     total cpu time spent up to now is      113.2 secs

     total energy              =    -326.28275127 Ry
     estimated scf accuracy    <       1.77627019 Ry

     iteration #  2     ecut=    70.00 Ry     beta= 0.70
     Davidson diagonalization with overlap
     ethr =  1.06E-03,  avg # of iterations = 14.0

     total cpu time spent up to now is      300.2 secs

     total energy              =    -323.54330693 Ry
     estimated scf accuracy    <      32.43151338 Ry

     iteration #  3     ecut=    70.00 Ry     beta= 0.70
     Davidson diagonalization with overlap
     ethr =  1.06E-03,  avg # of iterations = 11.5

     total cpu time spent up to now is      460.3 secs

     total energy              =    -326.74123139 Ry
     estimated scf accuracy    <       1.43883025 Ry

     iteration #  4     ecut=    70.00 Ry     beta= 0.70
     Davidson diagonalization with overlap
     ethr =  8.56E-04,  avg # of iterations =  7.0

     total cpu time spent up to now is      564.5 secs

     total energy              =    -326.84817852 Ry
     estimated scf accuracy    <       2.18730626 Ry

     iteration #  5     ecut=    70.00 Ry     beta= 0.70
     Davidson diagonalization with overlap
     ethr =  8.56E-04,  avg # of iterations =  3.6

     total cpu time spent up to now is      624.3 secs

     total energy              =    -326.92934774 Ry
     estimated scf accuracy    <       0.38486483 Ry

     iteration #  6     ecut=    70.00 Ry     beta= 0.70
     Davidson diagonalization with overlap
     ethr =  2.29E-04,  avg # of iterations =  7.9

     total cpu time spent up to now is      736.9 secs

     total energy              =    -327.02952578 Ry
     estimated scf accuracy    <       0.12136366 Ry

     iteration #  7     ecut=    70.00 Ry     beta= 0.70
     Davidson diagonalization with overlap
     ethr =  7.22E-05,  avg # of iterations =  5.8

     total cpu time spent up to now is      819.4 secs

     total energy              =    -327.02334399 Ry
     estimated scf accuracy    <       0.09735217 Ry

     iteration #  8     ecut=    70.00 Ry     beta= 0.70
     Davidson diagonalization with overlap
     ethr =  5.79E-05,  avg # of iterations =  6.2

     total cpu time spent up to now is      908.5 secs

     total energy              =    -327.02899094 Ry
     estimated scf accuracy    <       0.02108956 Ry

     iteration #  9     ecut=    70.00 Ry     beta= 0.70
     Davidson diagonalization with overlap
     c_bands:  1 eigenvalues not converged
     c_bands:  1 eigenvalues not converged
     ethr =  1.26E-05,  avg # of iterations = 13.1

     total cpu time spent up to now is     1075.8 secs

     total energy              =    -327.03685623 Ry
     estimated scf accuracy    <       0.01513473 Ry

     iteration # 10     ecut=    70.00 Ry     beta= 0.70
     Davidson diagonalization with overlap
     ethr =  9.01E-06,  avg # of iterations =  1.8

     total cpu time spent up to now is     1113.0 secs

     total energy              =    -327.03414504 Ry
     estimated scf accuracy    <       0.01392630 Ry

     iteration # 11     ecut=    70.00 Ry     beta= 0.70
     Davidson diagonalization with overlap
     c_bands:  1 eigenvalues not converged
     ethr =  8.29E-06,  avg # of iterations = 11.8

     total cpu time spent up to now is     1269.4 secs

     total energy              =    -327.03628110 Ry
     estimated scf accuracy    <       0.00363147 Ry

     iteration # 12     ecut=    70.00 Ry     beta= 0.70
     Davidson diagonalization with overlap
     ethr =  2.16E-06,  avg # of iterations =  9.1

     total cpu time spent up to now is     1392.3 secs

     total energy              =    -327.03676442 Ry
     estimated scf accuracy    <       0.00044530 Ry

     iteration # 13     ecut=    70.00 Ry     beta= 0.70
     Davidson diagonalization with overlap
     c_bands:  1 eigenvalues not converged
     c_bands:  1 eigenvalues not converged
     c_bands:  1 eigenvalues not converged
     ethr =  2.65E-07,  avg # of iterations = 15.8

     total cpu time spent up to now is     1595.1 secs

     total energy              =    -327.03682584 Ry
     estimated scf accuracy    <       0.00408922 Ry

     iteration # 14     ecut=    70.00 Ry     beta= 0.70
     Davidson diagonalization with overlap
     ethr =  2.65E-07,  avg # of iterations =  9.1

     total cpu time spent up to now is     1720.5 secs

     total energy              =    -327.03686649 Ry
     estimated scf accuracy    <       0.00077471 Ry

     iteration # 15     ecut=    70.00 Ry     beta= 0.70
     Davidson diagonalization with overlap
     ethr =  2.65E-07,  avg # of iterations = 10.4

     total cpu time spent up to now is     1865.1 secs

     total energy              =    -327.03697549 Ry
     estimated scf accuracy    <       0.00014790 Ry

     iteration # 16     ecut=    70.00 Ry     beta= 0.70
     Davidson diagonalization with overlap
     ethr =  8.80E-08,  avg # of iterations =  7.4

     total cpu time spent up to now is     1970.1 secs

     total energy              =    -327.03697946 Ry
     estimated scf accuracy    <       0.00021385 Ry

     iteration # 17     ecut=    70.00 Ry     beta= 0.70
     Davidson diagonalization with overlap
     ethr =  8.80E-08,  avg # of iterations =  1.6

     total cpu time spent up to now is     2005.1 secs

     total energy              =    -327.03695697 Ry
     estimated scf accuracy    <       0.00017768 Ry

     iteration # 18     ecut=    70.00 Ry     beta= 0.70
     Davidson diagonalization with overlap
     ethr =  8.80E-08,  avg # of iterations =  8.1

     total cpu time spent up to now is     2118.5 secs

     total energy              =    -327.03697123 Ry
     estimated scf accuracy    <       0.00002861 Ry

     iteration # 19     ecut=    70.00 Ry     beta= 0.70
     Davidson diagonalization with overlap
     c_bands:  1 eigenvalues not converged
     ethr =  1.70E-08,  avg # of iterations = 12.2

     total cpu time spent up to now is     2285.3 secs

     total energy              =    -327.03710143 Ry
     estimated scf accuracy    <       0.00023372 Ry

     iteration # 20     ecut=    70.00 Ry     beta= 0.70
     Davidson diagonalization with overlap
     c_bands:  1 eigenvalues not converged
     ethr =  1.70E-08,  avg # of iterations =  3.4

     total cpu time spent up to now is     2339.8 secs

     total energy              =    -327.03710616 Ry
     estimated scf accuracy    <       0.00023703 Ry

     iteration # 21     ecut=    70.00 Ry     beta= 0.70
     Davidson diagonalization with overlap
     ethr =  1.70E-08,  avg # of iterations =  2.6

     total cpu time spent up to now is     2386.2 secs

     total energy              =    -327.03710618 Ry
     estimated scf accuracy    <       0.00023816 Ry

     iteration # 22     ecut=    70.00 Ry     beta= 0.70
     Davidson diagonalization with overlap
     ethr =  1.70E-08,  avg # of iterations =  2.0

     total cpu time spent up to now is     2426.9 secs

     total energy              =    -327.03710871 Ry
     estimated scf accuracy    <       0.00023596 Ry

     iteration # 23     ecut=    70.00 Ry     beta= 0.70
     Davidson diagonalization with overlap
     ethr =  1.70E-08,  avg # of iterations = 10.1

     total cpu time spent up to now is     2562.1 secs

     total energy              =    -327.03711163 Ry
     estimated scf accuracy    <       0.00030718 Ry

     iteration # 24     ecut=    70.00 Ry     beta= 0.70
     Davidson diagonalization with overlap
     ethr =  1.70E-08,  avg # of iterations =  7.1

     total cpu time spent up to now is     2658.0 secs

     total energy              =    -327.03711762 Ry
     estimated scf accuracy    <       0.00029718 Ry

     iteration # 25     ecut=    70.00 Ry     beta= 0.70
     Davidson diagonalization with overlap
     ethr =  1.70E-08,  avg # of iterations =  6.6

     total cpu time spent up to now is     2752.1 secs

     total energy              =    -327.03711813 Ry
     estimated scf accuracy    <       0.00032004 Ry

     iteration # 26     ecut=    70.00 Ry     beta= 0.70
     Davidson diagonalization with overlap
     ethr =  1.70E-08,  avg # of iterations =  1.0

     total cpu time spent up to now is     2780.0 secs

     total energy              =    -327.03711805 Ry
     estimated scf accuracy    <       0.00031949 Ry

     iteration # 27     ecut=    70.00 Ry     beta= 0.70
     Davidson diagonalization with overlap
     ethr =  1.70E-08,  avg # of iterations =  3.0

     total cpu time spent up to now is     2830.3 secs

     total energy              =    -327.03704334 Ry
     estimated scf accuracy    <       0.00031887 Ry

     iteration # 28     ecut=    70.00 Ry     beta= 0.70
     Davidson diagonalization with overlap
     c_bands:  1 eigenvalues not converged
     c_bands:  1 eigenvalues not converged
     c_bands:  1 eigenvalues not converged
     c_bands:  1 eigenvalues not converged
     c_bands:  1 eigenvalues not converged
     c_bands:  3 eigenvalues not converged
     ethr =  1.70E-08,  avg # of iterations = 19.8

     total cpu time spent up to now is     3094.0 secs

     total energy              =    -327.03700297 Ry
     estimated scf accuracy    <       0.00268868 Ry

     iteration # 29     ecut=    70.00 Ry     beta= 0.70
     Davidson diagonalization with overlap
     c_bands:  2 eigenvalues not converged
     c_bands:  1 eigenvalues not converged
     c_bands:  1 eigenvalues not converged
     c_bands:  3 eigenvalues not converged
     ethr =  1.70E-08,  avg # of iterations = 18.1

     total cpu time spent up to now is     3330.7 secs

     total energy              =    -327.03702431 Ry
     estimated scf accuracy    <       0.00094957 Ry

     iteration # 30     ecut=    70.00 Ry     beta= 0.70
     Davidson diagonalization with overlap
     c_bands:  1 eigenvalues not converged
     ethr =  1.70E-08,  avg # of iterations = 16.1

     total cpu time spent up to now is     3542.5 secs

     total energy              =    -327.03703871 Ry
     estimated scf accuracy    <       0.00017269 Ry

     iteration # 31     ecut=    70.00 Ry     beta= 0.70
     Davidson diagonalization with overlap
     c_bands:  1 eigenvalues not converged
     ethr =  1.70E-08,  avg # of iterations = 17.6

     total cpu time spent up to now is     3769.3 secs

     total energy              =    -327.03706538 Ry
     estimated scf accuracy    <       0.00022143 Ry

     iteration # 32     ecut=    70.00 Ry     beta= 0.70
     Davidson diagonalization with overlap
     c_bands:  1 eigenvalues not converged
     c_bands:  1 eigenvalues not converged
     ethr =  1.70E-08,  avg # of iterations = 16.5

     total cpu time spent up to now is     3986.8 secs

     total energy              =    -327.03702475 Ry
     estimated scf accuracy    <       0.00088215 Ry

     iteration # 33     ecut=    70.00 Ry     beta= 0.70
     Davidson diagonalization with overlap
     c_bands:  1 eigenvalues not converged
     ethr =  1.70E-08,  avg # of iterations = 16.1

     total cpu time spent up to now is     4200.7 secs

     total energy              =    -327.03706392 Ry
     estimated scf accuracy    <       0.00009558 Ry

     iteration # 34     ecut=    70.00 Ry     beta= 0.70
     Davidson diagonalization with overlap
     ethr =  1.70E-08,  avg # of iterations =  8.0

     total cpu time spent up to now is     4309.3 secs

     total energy              =    -327.03706460 Ry
     estimated scf accuracy    <       0.00003789 Ry

     iteration # 35     ecut=    70.00 Ry     beta= 0.70
     Davidson diagonalization with overlap
     ethr =  1.70E-08,  avg # of iterations =  5.1

     total cpu time spent up to now is     4386.0 secs

     total energy              =    -327.03706606 Ry
     estimated scf accuracy    <       0.00001075 Ry

     iteration # 36     ecut=    70.00 Ry     beta= 0.70
     Davidson diagonalization with overlap
     ethr =  6.40E-09,  avg # of iterations = 11.0

     total cpu time spent up to now is     4535.4 secs

     End of self-consistent calculation

          k = 0.1667 0.1667 0.1667 ( 87278 PWs)   bands (ev):

    -8.5953  -7.7572  -7.7519  -7.7485  -7.1554  -7.0888  -6.9242  -6.6905
    -6.6425  -6.5842  -6.2919  -6.2634  -6.0053  -5.8082  -5.8063  -5.5430
    -5.4797  -5.2301  -4.8301  -4.7327  -4.6192  -4.5893  -4.5588  -4.4827
    -4.2850  -3.7793  -3.6288  -3.5536  -3.4289  -3.2552  -3.1344  -3.0948
    -3.0149  -2.8933  -2.6962  -2.3447  -2.2232  -2.0856  -1.5341  -1.4576
    -1.2619  -0.9022  -0.8640  -0.7726  -0.7439  -0.6880  -0.6355  -0.5821
    -0.4408  -0.3154  -0.2244  -0.0166  -0.0023   0.0550   0.1529   0.2067
     0.3078   0.3933   0.5554   0.6474   0.7448   0.8097   0.8231   0.9076
     1.0029   1.0127   1.1860   1.2081   1.3054   1.3847   1.3977   1.5008
     1.5998   1.6718   1.7058   1.7924   1.8432   1.8790   1.9400   1.9844
     2.1179   2.1922   2.2306   2.3124

          k = 0.1667 0.1667-0.5000 ( 87276 PWs)   bands (ev):

    -8.5788  -7.8156  -7.7481  -7.7332  -7.2037  -7.0839  -6.9618  -6.6842
    -6.6385  -6.4882  -6.2383  -6.2153  -5.9506  -5.8208  -5.8096  -5.5624
    -5.4861  -5.3665  -4.8372  -4.7216  -4.6246  -4.5730  -4.5487  -4.4807
    -4.3345  -3.8376  -3.5867  -3.5556  -3.4800  -3.2796  -3.1515  -3.0831
    -2.9875  -2.8200  -2.4931  -2.3926  -2.2620  -2.0671  -1.6298  -1.4622
    -1.3300  -0.8969  -0.8817  -0.7678  -0.7515  -0.6391  -0.6198  -0.5262
    -0.5257  -0.2726  -0.2201  -0.0666  -0.0016   0.1276   0.1444   0.1621
     0.3213   0.3520   0.4827   0.6637   0.6954   0.7288   0.8535   0.8779
     0.9270   1.0383   1.2500   1.3346   1.3744   1.3838   1.4424   1.6249
     1.6305   1.6958   1.7281   1.7736   1.9476   1.9930   2.0551   2.0615
     2.0768   2.1652   2.1958   2.3356

          k = 0.1667-0.5000-0.5000 ( 87304 PWs)   bands (ev):

    -8.5598  -7.8174  -7.8000  -7.7208  -7.2267  -7.1527  -6.9793  -6.6267
    -6.5232  -6.4869  -6.2298  -6.2086  -5.9707  -5.7732  -5.7488  -5.5146
    -5.4958  -5.3361  -4.9891  -4.7984  -4.7384  -4.6382  -4.5518  -4.4796
    -4.3250  -3.8684  -3.6089  -3.5284  -3.4003  -3.1771  -3.1401  -2.9207
    -2.8646  -2.7784  -2.5592  -2.4533  -2.3184  -2.1686  -1.6995  -1.5683
    -1.3614  -0.9681  -0.8797  -0.8276  -0.7506  -0.6885  -0.5110  -0.4733
    -0.3996  -0.3105  -0.1504  -0.0616   0.0214   0.0715   0.1616   0.2631
     0.4025   0.4519   0.5013   0.6535   0.7334   0.7893   0.8451   0.9134
     1.0138   1.0931   1.1995   1.2475   1.2834   1.3334   1.4550   1.5001
     1.5339   1.6048   1.6879   1.8550   1.8852   1.9703   2.0100   2.1062
     2.1351   2.1819   2.2638   2.3033

          k =-0.5000-0.5000-0.5000 ( 87128 PWs)   bands (ev):

    -8.5417  -7.8027  -7.7861  -7.7852  -7.2339  -7.2327  -7.0040  -6.5117
    -6.4838  -6.4760  -6.2354  -6.1833  -5.9315  -5.7397  -5.6837  -5.5185
    -5.4906  -5.3151  -4.9772  -4.9659  -4.8314  -4.7083  -4.6161  -4.5166
    -4.3725  -3.7250  -3.5855  -3.5644  -3.2669  -3.2122  -2.9944  -2.9040
    -2.8387  -2.7462  -2.6187  -2.5544  -2.2820  -2.2461  -1.6656  -1.5914
    -1.5520  -0.9853  -0.8717  -0.7786  -0.7026  -0.6164  -0.4673  -0.4418
    -0.3985  -0.2560  -0.1796  -0.0591  -0.0191   0.1746   0.2337   0.2535
     0.3534   0.6299   0.6371   0.6830   0.7575   0.8288   0.8467   0.9294
     0.9528   1.0054   1.1706   1.1790   1.1806   1.2319   1.2870   1.3305
     1.4695   1.6785   1.6870   1.7820   1.8421   1.9184   2.0034   2.0353
     2.0635   2.1166   2.2150   2.2157

          k = 0.1667-0.1667 0.1667 ( 87278 PWs)   bands (ev):

    -8.5953  -7.7599  -7.7490  -7.7488  -7.1455  -7.1002  -6.9255  -6.6847
    -6.6439  -6.5857  -6.2779  -6.2705  -6.0184  -5.8025  -5.7788  -5.5910
    -5.4813  -5.2343  -4.8110  -4.7414  -4.6505  -4.5263  -4.5050  -4.4628
    -4.3121  -3.8641  -3.6819  -3.5969  -3.3185  -3.2549  -3.1314  -3.1016
    -3.0113  -2.8690  -2.7608  -2.3351  -2.1552  -2.0637  -1.5684  -1.4434
    -1.2809  -0.8766  -0.8653  -0.7934  -0.7452  -0.6953  -0.5844  -0.5680
    -0.5091  -0.3537  -0.1832  -0.0041   0.0121   0.0395   0.0838   0.1609
     0.3149   0.4468   0.5596   0.6664   0.7622   0.8319   0.9226   0.9536
     0.9825   0.9994   1.0783   1.1912   1.1988   1.2806   1.4880   1.5286
     1.6332   1.6484   1.6911   1.7275   1.7938   1.9372   1.9392   2.0340
     2.1226   2.2136   2.3067   2.3239

          k = 0.1667-0.1667-0.5000 ( 87276 PWs)   bands (ev):

    -8.5788  -7.8158  -7.7508  -7.7304  -7.1981  -7.0930  -6.9603  -6.6793
    -6.6396  -6.4901  -6.2322  -6.2130  -5.9700  -5.8170  -5.7812  -5.5871
    -5.5036  -5.3701  -4.8187  -4.7372  -4.6421  -4.5179  -4.4858  -4.4595
    -4.3705  -3.9146  -3.6591  -3.5855  -3.4052  -3.2638  -3.1528  -3.0775
    -2.9727  -2.8129  -2.5579  -2.4034  -2.1459  -2.0598  -1.6567  -1.4644
    -1.3072  -0.9263  -0.8651  -0.8341  -0.7204  -0.6331  -0.6048  -0.5942
    -0.4529  -0.2927  -0.2431   0.0070   0.0281   0.0787   0.1170   0.1512
     0.2654   0.3791   0.4926   0.5724   0.6548   0.8112   0.9014   0.9633
     1.0491   1.0546   1.1804   1.2113   1.2884   1.2913   1.4433   1.5247
     1.6783   1.7247   1.7789   1.8329   1.8916   1.9926   2.0324   2.1062
     2.1655   2.2060   2.3169   2.3396

          k =-0.5000-0.1667 0.1667 ( 87276 PWs)   bands (ev):

    -8.5765  -7.8302  -7.7358  -7.7322  -7.1835  -7.1514  -6.9406  -6.6353
    -6.5858  -6.5164  -6.2846  -6.2652  -6.0234  -5.7874  -5.7360  -5.5006
    -5.4724  -5.1780  -5.0009  -4.7948  -4.7154  -4.6507  -4.5653  -4.4963
    -4.2871  -3.8124  -3.6174  -3.5757  -3.3459  -3.1756  -3.1546  -2.9806
    -2.8520  -2.8307  -2.6763  -2.3837  -2.3023  -2.1669  -1.7298  -1.3909
    -1.3537  -0.9476  -0.8747  -0.7983  -0.7660  -0.6803  -0.6116  -0.5811
    -0.3548  -0.2302  -0.1748  -0.0642  -0.0255   0.0506   0.1560   0.2239
     0.3302   0.4093   0.4638   0.6431   0.7053   0.7797   0.8982   0.9672
     1.0392   1.1096   1.1947   1.2721   1.2972   1.4057   1.4310   1.5330
     1.6001   1.6646   1.6941   1.8202   1.8782   1.9394   1.9738   2.0492
     2.1493   2.2233   2.2548   2.3298

          k =-0.5000 0.5000 0.1667 ( 87304 PWs)   bands (ev):

    -8.5585  -7.8120  -7.8041  -7.7175  -7.2405  -7.1801  -6.9642  -6.5932
    -6.4906  -6.4793  -6.2962  -6.2521  -6.0067  -5.7269  -5.6737  -5.4834
    -5.4823  -5.1508  -4.9870  -4.9791  -4.8063  -4.7220  -4.6224  -4.5157
    -4.3424  -3.6673  -3.6259  -3.5664  -3.2387  -3.2103  -3.0929  -2.9150
    -2.8184  -2.7766  -2.7445  -2.4299  -2.2762  -2.2380  -1.7317  -1.5980
    -1.3300  -0.9889  -0.8066  -0.7287  -0.7212  -0.6709  -0.6359  -0.5979
    -0.2719  -0.1582  -0.1242  -0.0612  -0.0212   0.1529   0.1747   0.2404
     0.3463   0.3577   0.4809   0.5015   0.6603   0.7058   0.8532   0.8953
     1.0416   1.0873   1.1931   1.2317   1.2555   1.3570   1.4576   1.5726
     1.6145   1.7224   1.7749   1.7944   1.8489   1.9013   1.9657   2.0716
     2.1056   2.1426   2.1703   2.3482

     highest occupied level (ev):     2.3482

!    total energy              =    -327.03706775 Ry
     estimated scf accuracy    <       0.00000067 Ry

     The total energy is the sum of the following terms:
     one-electron contribution =     -81.49029330 Ry
     hartree contribution      =      90.17186794 Ry
     xc contribution           =     -94.38762446 Ry
     ewald contribution        =    -241.33101794 Ry

     convergence has been achieved in  36 iterations

     Forces acting on atoms (cartesian axes, Ry/au):

     atom    1 type  1   force =    -0.00103212   -0.00103212   -0.00755178
     atom    2 type  1   force =    -0.01245615    0.01245615   -0.00136978
     atom    3 type  1   force =     0.01245615   -0.01245615   -0.00136978
     atom    4 type  1   force =     0.00103212    0.00103212   -0.00755178
     atom    5 type  1   force =    -0.00151413   -0.00151413   -0.00420626
     atom    6 type  1   force =    -0.00685234    0.00685234    0.00139523
     atom    7 type  1   force =     0.00685234   -0.00685234    0.00139523
     atom    8 type  1   force =     0.00151413    0.00151413   -0.00420626
     atom    9 type  1   force =     0.00000000    0.00000000   -0.02994839
     atom   10 type  1   force =     0.00000000    0.00000000    0.00301966
     atom   11 type  1   force =     0.00104223    0.00030074   -0.00128229
     atom   12 type  1   force =    -0.00104223   -0.00030074   -0.00128229
     atom   13 type  1   force =     0.00834613    0.01146520    0.01934878
     atom   14 type  1   force =    -0.00834613   -0.01146520    0.01934878
     atom   15 type  1   force =     0.00030074    0.00104223   -0.00128229
     atom   16 type  1   force =    -0.00030074   -0.00104223   -0.00128229
     atom   17 type  1   force =     0.01146520    0.00834613    0.01934878
     atom   18 type  1   force =    -0.01146520   -0.00834613    0.01934878
     atom   19 type  1   force =    -0.00452340   -0.00452340   -0.00785763
     atom   20 type  1   force =     0.01066190   -0.02213804    0.00350890
     atom   21 type  1   force =    -0.02213804    0.01066190    0.00350890
     atom   22 type  1   force =    -0.00513521   -0.00513521    0.01101734
     atom   23 type  1   force =    -0.00216268   -0.00216268   -0.00232057
     atom   24 type  1   force =     0.02361643    0.00704644   -0.00566466
     atom   25 type  1   force =     0.00704644    0.02361643   -0.00566466
     atom   26 type  1   force =     0.01092179    0.01092179   -0.00487596
     atom   27 type  1   force =     0.00513521    0.00513521    0.01101734
     atom   28 type  1   force =     0.02213804   -0.01066190    0.00350890
     atom   29 type  1   force =    -0.01066190    0.02213804    0.00350890
     atom   30 type  1   force =     0.00452340    0.00452340   -0.00785763
     atom   31 type  1   force =    -0.01092179   -0.01092179   -0.00487596
     atom   32 type  1   force =    -0.00704644   -0.02361643   -0.00566466
     atom   33 type  1   force =    -0.02361643   -0.00704644   -0.00566466
     atom   34 type  1   force =     0.00216268    0.00216268   -0.00232057
     atom   35 type  1   force =    -0.00544469   -0.02553945    0.00180642
     atom   36 type  1   force =     0.01203321   -0.01203321   -0.00974013
     atom   37 type  1   force =    -0.00247829    0.00247829    0.00353959
     atom   38 type  1   force =     0.02553945    0.00544469    0.00180642
     atom   39 type  1   force =    -0.02553945   -0.00544469    0.00180642
     atom   40 type  1   force =     0.00247829   -0.00247829    0.00353959
     atom   41 type  1   force =    -0.01203321    0.01203321   -0.00974013
     atom   42 type  1   force =     0.00544469    0.02553945    0.00180642

     Total force =     0.117845     Total SCF correction =     0.000940


     Computing stress (Cartesian axis) and pressure

          total   stress  (Ry/bohr**3)                   (kbar)     P=      -33.92
  -0.00024337   0.00000172   0.00000000          -35.80        0.25        0.00
   0.00000172  -0.00024337   0.00000000            0.25      -35.80        0.00
   0.00000000   0.00000000  -0.00020503            0.00        0.00      -30.16


     Writing output data file ./Si64.save/

     init_run     :      8.37s CPU     15.62s WALL (       1 calls)
     electrons    :   2167.47s CPU   4519.66s WALL (       1 calls)
     forces       :      3.86s CPU     10.38s WALL (       1 calls)
     stress       :      5.25s CPU      7.26s WALL (       1 calls)

     Called by init_run:
     wfcinit      :      7.72s CPU     14.95s WALL (       1 calls)
     potinit      :      0.06s CPU      0.07s WALL (       1 calls)
     hinit0       :      0.07s CPU      0.07s WALL (       1 calls)

     Called by electrons:
     c_bands      :   2137.72s CPU   4484.41s WALL (      37 calls)
     sum_band     :     24.70s CPU     28.90s WALL (      37 calls)
     v_of_rho     :      1.85s CPU      2.15s WALL (      37 calls)
     mix_rho      :      3.09s CPU      3.99s WALL (      37 calls)

     Called by c_bands:
     init_us_2    :      1.73s CPU      2.34s WALL (     616 calls)
     cegterg      :   2110.57s CPU   4427.81s WALL (     296 calls)

     Called by *egterg:
     cdiaghg      :    571.54s CPU    757.97s WALL (    2895 calls)
     h_psi        :    602.45s CPU   1473.60s WALL (    2911 calls)
     g_psi        :      0.55s CPU      0.85s WALL (    2607 calls)

     Called by h_psi:
     h_psi:calbec :    332.90s CPU    885.95s WALL (    2911 calls)
     vloc_psi     :    201.35s CPU    295.12s WALL (    2911 calls)
     add_vuspsi   :     67.51s CPU    290.11s WALL (    2911 calls)

     General routines
     calbec       :    337.42s CPU    897.02s WALL (    2951 calls)
     fft          :      0.83s CPU      1.08s WALL (     378 calls)
     ffts         :      0.06s CPU      0.06s WALL (      37 calls)
     fftw         :    208.77s CPU    299.20s WALL (  181772 calls)

     Parallel routines
     fft_scatt_xy :     15.06s CPU     17.54s WALL (  182187 calls)
     fft_scatt_yz :    131.94s CPU    184.68s WALL (  182187 calls)

     PWSCF        :  36m25.61s CPU      1h15m WALL


   This run was terminated on:  19:29:57  23Feb2022            

=------------------------------------------------------------------------------=
   JOB DONE.
=------------------------------------------------------------------------------=
