
     Program PWSCF v.7.0 starts on 18Feb2022 at 18:40: 6 

     This program is part of the open-source Quantum ESPRESSO suite
     for quantum simulation of materials; please cite
         "P. Giannozzi et al., J. Phys.:Condens. Matter 21 395502 (2009);
         "P. Giannozzi et al., J. Phys.:Condens. Matter 29 465901 (2017);
         "P. Giannozzi et al., J. Chem. Phys. 152 154105 (2020);
          URL http://www.quantum-espresso.org", 
     in publications or presentations arising from this work. More details at
     http://www.quantum-espresso.org/quote

     Parallel version (MPI), running on     1 processors

     MPI processes distributed on     1 nodes
     88205 MiB available memory on the printing compute node when the environment starts
 
     Reading input from Si.scf.120.in

     Current dimensions of program PWSCF are:
     Max number of different atomic species (ntypx) = 10
     Max number of k-points (npk) =  40000
     Max angular momentum in pseudopotentials (lmaxx) =  4

     Subspace diagonalization in iterative solution of the eigenvalue problem:
     a serial algorithm will be used

 
     G-vector sticks info
     --------------------
     sticks:   dense  smooth     PW     G-vecs:    dense   smooth      PW
     Sum        1765    1765    511                48869    48869    7727
 
     Using Slab Decomposition
 


     bravais-lattice index     =            2
     lattice parameter (alat)  =      10.3330  a.u.
     unit-cell volume          =     275.8159 (a.u.)^3
     number of atoms/cell      =            2
     number of atomic types    =            1
     number of electrons       =         8.00
     number of Kohn-Sham states=            4
     kinetic-energy cutoff     =     120.0000  Ry
     charge density cutoff     =     480.0000  Ry
     scf convergence threshold =      1.0E-06
     mixing beta               =       0.7000
     number of iterations used =            8  plain     mixing
     Exchange-correlation=  SLA  PW   PBE  PBE
                           (   1   4   3   4   0   0   0)

     celldm(1)=  10.333000  celldm(2)=   0.000000  celldm(3)=   0.000000
     celldm(4)=   0.000000  celldm(5)=   0.000000  celldm(6)=   0.000000

     crystal axes: (cart. coord. in units of alat)
               a(1) = (  -0.500000   0.000000   0.500000 )  
               a(2) = (   0.000000   0.500000   0.500000 )  
               a(3) = (  -0.500000   0.500000   0.000000 )  

     reciprocal axes: (cart. coord. in units 2 pi/alat)
               b(1) = ( -1.000000 -1.000000  1.000000 )  
               b(2) = (  1.000000  1.000000  1.000000 )  
               b(3) = ( -1.000000  1.000000 -1.000000 )  


     PseudoPot. # 1 for Si read from file:
     ./Si.pbe-rrkj.UPF
     MD5 check sum: cf7ab5690cd9a85b22c4813f7e365554
     Pseudo is Norm-conserving, Zval =  4.0
     Generated by new atomic code, or converted to UPF format
     Using radial grid of  883 points,  3 beta functions with: 
                l(1) =   0
                l(2) =   0
                l(3) =   1

     atomic species   valence    mass     pseudopotential
        Si             4.00    28.08600     Si( 1.00)

     48 Sym. Ops., with inversion, found (24 have fractional translation)



   Cartesian axes

     site n.     atom                  positions (alat units)
         1           Si  tau(   1) = (   0.0000000   0.0000000   0.0000000  )
         2           Si  tau(   2) = (   0.2500000   0.2500000   0.2500000  )

     number of k points=    28
                       cart. coord. in units 2pi/alat
        k(    1) = (  -0.0833333   0.0833333   0.0833333), wk =   0.0185185
        k(    2) = (  -0.2500000   0.2500000  -0.0833333), wk =   0.0555556
        k(    3) = (  -0.4166667   0.4166667  -0.2500000), wk =   0.0555556
        k(    4) = (   0.4166667  -0.4166667   0.5833333), wk =   0.0555556
        k(    5) = (   0.2500000  -0.2500000   0.4166667), wk =   0.0555556
        k(    6) = (   0.0833333  -0.0833333   0.2500000), wk =   0.0555556
        k(    7) = (  -0.0833333   0.4166667   0.0833333), wk =   0.0555556
        k(    8) = (  -0.2500000   0.5833333  -0.0833333), wk =   0.1111111
        k(    9) = (   0.5833333  -0.2500000   0.7500000), wk =   0.1111111
        k(   10) = (   0.4166667  -0.0833333   0.5833333), wk =   0.1111111
        k(   11) = (   0.2500000   0.0833333   0.4166667), wk =   0.1111111
        k(   12) = (  -0.0833333   0.7500000   0.0833333), wk =   0.0555556
        k(   13) = (   0.7500000  -0.0833333   0.9166667), wk =   0.1111111
        k(   14) = (   0.5833333   0.0833333   0.7500000), wk =   0.1111111
        k(   15) = (   0.4166667   0.2500000   0.5833333), wk =   0.1111111
        k(   16) = (  -0.0833333  -0.9166667   0.0833333), wk =   0.0555556
        k(   17) = (  -0.2500000  -0.7500000  -0.0833333), wk =   0.1111111
        k(   18) = (  -0.0833333  -0.5833333   0.0833333), wk =   0.0555556
        k(   19) = (  -0.2500000   0.2500000   0.2500000), wk =   0.0185185
        k(   20) = (  -0.4166667   0.4166667   0.0833333), wk =   0.0555556
        k(   21) = (   0.4166667  -0.4166667   0.9166667), wk =   0.0555556
        k(   22) = (   0.2500000  -0.2500000   0.7500000), wk =   0.0555556
        k(   23) = (  -0.2500000   0.5833333   0.2500000), wk =   0.0555556
        k(   24) = (   0.5833333  -0.2500000   1.0833333), wk =   0.1111111
        k(   25) = (   0.4166667  -0.0833333   0.9166667), wk =   0.1111111
        k(   26) = (  -0.2500000  -1.0833333   0.2500000), wk =   0.0555556
        k(   27) = (  -0.4166667   0.4166667   0.4166667), wk =   0.0185185
        k(   28) = (   0.4166667  -0.4166667   1.2500000), wk =   0.0555556

     Dense  grid:    48869 G-vectors     FFT dimensions: (  60,  60,  60)

     Estimated max dynamical RAM per process >      48.72 MB

     Initial potential from superposition of free atoms

     starting charge       7.9989, renormalised to       8.0000
     Starting wfcs are    8 randomized atomic wfcs

     total cpu time spent up to now is        3.9 secs

     Self-consistent Calculation

     iteration #  1     ecut=   120.00 Ry     beta= 0.70
     Davidson diagonalization with overlap
     ethr =  1.00E-02,  avg # of iterations =  2.0

     Threshold (ethr) on eigenvalues was too large:
     Diagonalizing with lowered threshold

     Davidson diagonalization with overlap
     ethr =  5.68E-04,  avg # of iterations =  2.0

     total cpu time spent up to now is       13.0 secs

     total energy              =     -15.73954170 Ry
     estimated scf accuracy    <       0.05350107 Ry

     iteration #  2     ecut=   120.00 Ry     beta= 0.70
     Davidson diagonalization with overlap
     ethr =  6.69E-04,  avg # of iterations =  1.0

     total cpu time spent up to now is       16.8 secs

     total energy              =     -15.74124212 Ry
     estimated scf accuracy    <       0.00310961 Ry

     iteration #  3     ecut=   120.00 Ry     beta= 0.70
     Davidson diagonalization with overlap
     ethr =  3.89E-05,  avg # of iterations =  2.2

     total cpu time spent up to now is       21.8 secs

     total energy              =     -15.74183558 Ry
     estimated scf accuracy    <       0.00009050 Ry

     iteration #  4     ecut=   120.00 Ry     beta= 0.70
     Davidson diagonalization with overlap
     ethr =  1.13E-06,  avg # of iterations =  4.7

     total cpu time spent up to now is       28.3 secs

     total energy              =     -15.74190643 Ry
     estimated scf accuracy    <       0.00000399 Ry

     iteration #  5     ecut=   120.00 Ry     beta= 0.70
     Davidson diagonalization with overlap
     ethr =  4.99E-08,  avg # of iterations =  4.0

     total cpu time spent up to now is       34.3 secs

     End of self-consistent calculation

          k =-0.0833 0.0833 0.0833 (  6105 PWs)   bands (ev):

    -5.6574   5.1711   5.8762   5.8762

          k =-0.2500 0.2500-0.0833 (  6115 PWs)   bands (ev):

    -5.1878   3.1204   4.6654   5.6678

          k =-0.4167 0.4167-0.2500 (  6124 PWs)   bands (ev):

    -4.1123   0.4007   4.2063   5.0410

          k = 0.4167-0.4167 0.5833 (  6138 PWs)   bands (ev):

    -3.4258  -0.7249   4.2703   4.6673

          k = 0.2500-0.2500 0.4167 (  6121 PWs)   bands (ev):

    -4.5176   1.2342   4.7281   4.7616

          k = 0.0833-0.0833 0.2500 (  6122 PWs)   bands (ev):

    -5.4203   4.1165   5.2431   5.4252

          k =-0.0833 0.4167 0.0833 (  6121 PWs)   bands (ev):

    -4.9502   2.9317   4.5109   4.5251

          k =-0.2500 0.5833-0.0833 (  6123 PWs)   bands (ev):

    -4.0536   1.1189   3.2167   4.1448

          k = 0.5833-0.2500 0.7500 (  6124 PWs)   bands (ev):

    -2.9557  -0.6024   2.6237   3.9216

          k = 0.4167-0.0833 0.5833 (  6130 PWs)   bands (ev):

    -3.6654   0.4374   2.5848   4.3991

          k = 0.2500 0.0833 0.4167 (  6122 PWs)   bands (ev):

    -4.7282   2.1092   3.9021   5.0546

          k =-0.0833 0.7500 0.0833 (  6137 PWs)   bands (ev):

    -3.3527   0.3016   3.1800   3.5114

          k = 0.7500-0.0833 0.9167 (  6115 PWs)   bands (ev):

    -2.1757  -1.0183   2.3550   3.1143

          k = 0.5833 0.0833 0.7500 (  6115 PWs)   bands (ev):

    -2.5421  -0.6856   1.8802   3.6506

          k = 0.4167 0.2500 0.5833 (  6138 PWs)   bands (ev):

    -3.5556  -0.2331   3.5078   4.4941

          k =-0.0833-0.9167 0.0833 (  6116 PWs)   bands (ev):

    -2.2654  -1.0259   2.9146   3.2990

          k =-0.2500-0.7500-0.0833 (  6123 PWs)   bands (ev):

    -3.1870   0.0819   2.6706   3.4492

          k =-0.0833-0.5833 0.0833 (  6128 PWs)   bands (ev):

    -4.2559   1.6476   3.7159   3.9276

          k =-0.2500 0.2500 0.2500 (  6108 PWs)   bands (ev):

    -4.9617   2.1576   5.2723   5.2723

          k =-0.4167 0.4167 0.0833 (  6115 PWs)   bands (ev):

    -4.2929   1.2343   3.1819   5.1046

          k = 0.4167-0.4167 0.9167 (  6120 PWs)   bands (ev):

    -3.1326  -0.1870   2.0939   4.3324

          k = 0.2500-0.2500 0.7500 (  6120 PWs)   bands (ev):

    -3.0809  -0.2652   2.5637   3.8588

          k =-0.2500 0.5833 0.2500 (  6143 PWs)   bands (ev):

    -3.8755   0.4397   3.6362   4.2262

          k = 0.5833-0.2500 1.0833 (  6110 PWs)   bands (ev):

    -2.8892  -0.3003   2.1924   3.4490

          k = 0.4167-0.0833 0.9167 (  6117 PWs)   bands (ev):

    -2.0715  -1.0261   2.0321   2.7939

          k =-0.2500-1.0833 0.2500 (  6109 PWs)   bands (ev):

    -2.2789  -0.9320   1.9079   3.6672

          k =-0.4167 0.4167 0.4167 (  6137 PWs)   bands (ev):

    -3.7886  -0.3307   4.8884   4.8884

          k = 0.4167-0.4167 1.2500 (  6131 PWs)   bands (ev):

    -3.1937  -0.6299   3.0899   4.4568

     highest occupied level (ev):     5.8762

!    total energy              =     -15.74190899 Ry
     estimated scf accuracy    <       0.00000018 Ry

     The total energy is the sum of the following terms:
     one-electron contribution =       4.61892874 Ry
     hartree contribution      =       1.11209051 Ry
     xc contribution           =      -4.79069293 Ry
     ewald contribution        =     -16.68223531 Ry

     convergence has been achieved in   5 iterations

     Forces acting on atoms (cartesian axes, Ry/au):

     atom    1 type  1   force =     0.00000000    0.00000000    0.00000000
     atom    2 type  1   force =     0.00000000    0.00000000   -0.00000000

     Total force =     0.000000     Total SCF correction =     0.000000


     Computing stress (Cartesian axis) and pressure

          total   stress  (Ry/bohr**3)                   (kbar)     P=        3.40
   0.00002309   0.00000000   0.00000000            3.40        0.00        0.00
   0.00000000   0.00002309   0.00000000            0.00        3.40        0.00
   0.00000000   0.00000000   0.00002309            0.00        0.00        3.40


     Writing all to output data dir ./Si2.save/
 
     init_run     :      3.53s CPU      3.66s WALL (       1 calls)
     electrons    :     29.78s CPU     30.53s WALL (       1 calls)
     forces       :      0.20s CPU      0.20s WALL (       1 calls)
     stress       :      1.92s CPU      1.94s WALL (       1 calls)

     Called by init_run:
     wfcinit      :      2.80s CPU      2.86s WALL (       1 calls)
     potinit      :      0.32s CPU      0.36s WALL (       1 calls)
     hinit0       :      0.24s CPU      0.27s WALL (       1 calls)

     Called by electrons:
     c_bands      :     23.65s CPU     24.28s WALL (       6 calls)
     sum_band     :      4.51s CPU      4.56s WALL (       6 calls)
     v_of_rho     :      1.84s CPU      1.89s WALL (       6 calls)
     mix_rho      :      0.06s CPU      0.07s WALL (       6 calls)

     Called by c_bands:
     init_us_2    :      1.40s CPU      1.45s WALL (     420 calls)
     init_us_2:cp :      1.39s CPU      1.44s WALL (     420 calls)
     cegterg      :     22.76s CPU     23.10s WALL (     168 calls)

     Called by *egterg:
     cdiaghg      :      0.18s CPU      0.20s WALL (     584 calls)
     h_psi        :     24.04s CPU     24.33s WALL (     640 calls)
     g_psi        :      0.06s CPU      0.07s WALL (     444 calls)

     Called by h_psi:
     h_psi:calbec :      0.24s CPU      0.25s WALL (     640 calls)
     vloc_psi     :     23.43s CPU     23.69s WALL (     640 calls)
     add_vuspsi   :      0.28s CPU      0.30s WALL (     640 calls)

     General routines
     calbec       :      0.27s CPU      0.29s WALL (     780 calls)
     fft          :      0.31s CPU      0.33s WALL (      68 calls)
     ffts         :      0.03s CPU      0.03s WALL (       6 calls)
     fftw         :     22.92s CPU     23.07s WALL (    5144 calls)
 
     Parallel routines
 
     PWSCF        :     35.67s CPU     36.96s WALL

 
   This run was terminated on:  18:40:43  18Feb2022            

=------------------------------------------------------------------------------=
   JOB DONE.
=------------------------------------------------------------------------------=
