
     Program PWSCF v.7.0 starts on 18Feb2022 at 19:17:47 

     This program is part of the open-source Quantum ESPRESSO suite
     for quantum simulation of materials; please cite
         "P. Giannozzi et al., J. Phys.:Condens. Matter 21 395502 (2009);
         "P. Giannozzi et al., J. Phys.:Condens. Matter 29 465901 (2017);
         "P. Giannozzi et al., J. Chem. Phys. 152 154105 (2020);
          URL http://www.quantum-espresso.org", 
     in publications or presentations arising from this work. More details at
     http://www.quantum-espresso.org/quote

     Parallel version (MPI), running on     1 processors

     MPI processes distributed on     1 nodes
     88092 MiB available memory on the printing compute node when the environment starts
 
     Reading input from Si.scf.9.in

     Current dimensions of program PWSCF are:
     Max number of different atomic species (ntypx) = 10
     Max number of k-points (npk) =  40000
     Max angular momentum in pseudopotentials (lmaxx) =  4

     Subspace diagonalization in iterative solution of the eigenvalue problem:
     a serial algorithm will be used

 
     G-vector sticks info
     --------------------
     sticks:   dense  smooth     PW     G-vecs:    dense   smooth      PW
     Sum         877     877    271                17261    17261    2975
 
     Using Slab Decomposition
 


     bravais-lattice index     =            2
     lattice parameter (alat)  =      10.3330  a.u.
     unit-cell volume          =     275.8159 (a.u.)^3
     number of atoms/cell      =            2
     number of atomic types    =            1
     number of electrons       =         8.00
     number of Kohn-Sham states=            4
     kinetic-energy cutoff     =      60.0000  Ry
     charge density cutoff     =     240.0000  Ry
     scf convergence threshold =      1.0E-06
     mixing beta               =       0.7000
     number of iterations used =            8  plain     mixing
     Exchange-correlation=  SLA  PW   PBE  PBE
                           (   1   4   3   4   0   0   0)

     celldm(1)=  10.333000  celldm(2)=   0.000000  celldm(3)=   0.000000
     celldm(4)=   0.000000  celldm(5)=   0.000000  celldm(6)=   0.000000

     crystal axes: (cart. coord. in units of alat)
               a(1) = (  -0.500000   0.000000   0.500000 )  
               a(2) = (   0.000000   0.500000   0.500000 )  
               a(3) = (  -0.500000   0.500000   0.000000 )  

     reciprocal axes: (cart. coord. in units 2 pi/alat)
               b(1) = ( -1.000000 -1.000000  1.000000 )  
               b(2) = (  1.000000  1.000000  1.000000 )  
               b(3) = ( -1.000000  1.000000 -1.000000 )  


     PseudoPot. # 1 for Si read from file:
     ./Si.pbe-rrkj.UPF
     MD5 check sum: cf7ab5690cd9a85b22c4813f7e365554
     Pseudo is Norm-conserving, Zval =  4.0
     Generated by new atomic code, or converted to UPF format
     Using radial grid of  883 points,  3 beta functions with: 
                l(1) =   0
                l(2) =   0
                l(3) =   1

     atomic species   valence    mass     pseudopotential
        Si             4.00    28.08600     Si( 1.00)

     48 Sym. Ops., with inversion, found (24 have fractional translation)



   Cartesian axes

     site n.     atom                  positions (alat units)
         1           Si  tau(   1) = (   0.0000000   0.0000000   0.0000000  )
         2           Si  tau(   2) = (   0.2500000   0.2500000   0.2500000  )

     number of k points=    85
                       cart. coord. in units 2pi/alat
        k(    1) = (  -0.0555556   0.0555556   0.0555556), wk =   0.0054870
        k(    2) = (  -0.1666667   0.1666667  -0.0555556), wk =   0.0164609
        k(    3) = (  -0.2777778   0.2777778  -0.1666667), wk =   0.0164609
        k(    4) = (  -0.3888889   0.3888889  -0.2777778), wk =   0.0164609
        k(    5) = (   0.5000000  -0.5000000   0.6111111), wk =   0.0164609
        k(    6) = (   0.3888889  -0.3888889   0.5000000), wk =   0.0164609
        k(    7) = (   0.2777778  -0.2777778   0.3888889), wk =   0.0164609
        k(    8) = (   0.1666667  -0.1666667   0.2777778), wk =   0.0164609
        k(    9) = (   0.0555556  -0.0555556   0.1666667), wk =   0.0164609
        k(   10) = (  -0.0555556   0.2777778   0.0555556), wk =   0.0164609
        k(   11) = (  -0.1666667   0.3888889  -0.0555556), wk =   0.0329218
        k(   12) = (  -0.2777778   0.5000000  -0.1666667), wk =   0.0329218
        k(   13) = (   0.6111111  -0.3888889   0.7222222), wk =   0.0329218
        k(   14) = (   0.5000000  -0.2777778   0.6111111), wk =   0.0329218
        k(   15) = (   0.3888889  -0.1666667   0.5000000), wk =   0.0329218
        k(   16) = (   0.2777778  -0.0555556   0.3888889), wk =   0.0329218
        k(   17) = (   0.1666667   0.0555556   0.2777778), wk =   0.0329218
        k(   18) = (  -0.0555556   0.5000000   0.0555556), wk =   0.0164609
        k(   19) = (  -0.1666667   0.6111111  -0.0555556), wk =   0.0329218
        k(   20) = (   0.7222222  -0.2777778   0.8333333), wk =   0.0329218
        k(   21) = (   0.6111111  -0.1666667   0.7222222), wk =   0.0329218
        k(   22) = (   0.5000000  -0.0555556   0.6111111), wk =   0.0329218
        k(   23) = (   0.3888889   0.0555556   0.5000000), wk =   0.0329218
        k(   24) = (   0.2777778   0.1666667   0.3888889), wk =   0.0329218
        k(   25) = (  -0.0555556   0.7222222   0.0555556), wk =   0.0164609
        k(   26) = (   0.8333333  -0.1666667   0.9444444), wk =   0.0329218
        k(   27) = (   0.7222222  -0.0555556   0.8333333), wk =   0.0329218
        k(   28) = (   0.6111111   0.0555556   0.7222222), wk =   0.0329218
        k(   29) = (   0.5000000   0.1666667   0.6111111), wk =   0.0329218
        k(   30) = (   0.3888889   0.2777778   0.5000000), wk =   0.0329218
        k(   31) = (  -0.0555556  -1.0555556   0.0555556), wk =   0.0164609
        k(   32) = (  -0.1666667  -0.9444444  -0.0555556), wk =   0.0329218
        k(   33) = (  -0.2777778  -0.8333333  -0.1666667), wk =   0.0329218
        k(   34) = (  -0.3888889  -0.7222222  -0.2777778), wk =   0.0329218
        k(   35) = (  -0.5000000  -0.6111111  -0.3888889), wk =   0.0164609
        k(   36) = (  -0.0555556  -0.8333333   0.0555556), wk =   0.0164609
        k(   37) = (  -0.1666667  -0.7222222  -0.0555556), wk =   0.0329218
        k(   38) = (  -0.2777778  -0.6111111  -0.1666667), wk =   0.0329218
        k(   39) = (  -0.0555556  -0.6111111   0.0555556), wk =   0.0164609
        k(   40) = (  -0.1666667  -0.5000000  -0.0555556), wk =   0.0329218
        k(   41) = (  -0.0555556  -0.3888889   0.0555556), wk =   0.0164609
        k(   42) = (  -0.1666667   0.1666667   0.1666667), wk =   0.0054870
        k(   43) = (  -0.2777778   0.2777778   0.0555556), wk =   0.0164609
        k(   44) = (  -0.3888889   0.3888889  -0.0555556), wk =   0.0164609
        k(   45) = (   0.5000000  -0.5000000   0.8333333), wk =   0.0164609
        k(   46) = (   0.3888889  -0.3888889   0.7222222), wk =   0.0164609
        k(   47) = (   0.2777778  -0.2777778   0.6111111), wk =   0.0164609
        k(   48) = (   0.1666667  -0.1666667   0.5000000), wk =   0.0164609
        k(   49) = (  -0.1666667   0.3888889   0.1666667), wk =   0.0164609
        k(   50) = (  -0.2777778   0.5000000   0.0555556), wk =   0.0329218
        k(   51) = (   0.6111111  -0.3888889   0.9444444), wk =   0.0329218
        k(   52) = (   0.5000000  -0.2777778   0.8333333), wk =   0.0329218
        k(   53) = (   0.3888889  -0.1666667   0.7222222), wk =   0.0329218
        k(   54) = (   0.2777778  -0.0555556   0.6111111), wk =   0.0329218
        k(   55) = (  -0.1666667   0.6111111   0.1666667), wk =   0.0164609
        k(   56) = (   0.7222222  -0.2777778   1.0555556), wk =   0.0329218
        k(   57) = (   0.6111111  -0.1666667   0.9444444), wk =   0.0329218
        k(   58) = (   0.5000000  -0.0555556   0.8333333), wk =   0.0329218
        k(   59) = (   0.3888889   0.0555556   0.7222222), wk =   0.0329218
        k(   60) = (  -0.1666667  -1.1666667   0.1666667), wk =   0.0164609
        k(   61) = (  -0.2777778  -1.0555556   0.0555556), wk =   0.0329218
        k(   62) = (  -0.3888889  -0.9444444  -0.0555556), wk =   0.0329218
        k(   63) = (  -0.5000000  -0.8333333  -0.1666667), wk =   0.0164609
        k(   64) = (  -0.1666667  -0.9444444   0.1666667), wk =   0.0164609
        k(   65) = (  -0.2777778  -0.8333333   0.0555556), wk =   0.0329218
        k(   66) = (  -0.1666667  -0.7222222   0.1666667), wk =   0.0164609
        k(   67) = (  -0.2777778   0.2777778   0.2777778), wk =   0.0054870
        k(   68) = (  -0.3888889   0.3888889   0.1666667), wk =   0.0164609
        k(   69) = (   0.5000000  -0.5000000   1.0555556), wk =   0.0164609
        k(   70) = (   0.3888889  -0.3888889   0.9444444), wk =   0.0164609
        k(   71) = (   0.2777778  -0.2777778   0.8333333), wk =   0.0164609
        k(   72) = (  -0.2777778   0.5000000   0.2777778), wk =   0.0164609
        k(   73) = (   0.6111111  -0.3888889   1.1666667), wk =   0.0329218
        k(   74) = (   0.5000000  -0.2777778   1.0555556), wk =   0.0329218
        k(   75) = (   0.3888889  -0.1666667   0.9444444), wk =   0.0329218
        k(   76) = (  -0.2777778  -1.2777778   0.2777778), wk =   0.0164609
        k(   77) = (  -0.3888889  -1.1666667   0.1666667), wk =   0.0329218
        k(   78) = (  -0.5000000  -1.0555556   0.0555556), wk =   0.0164609
        k(   79) = (  -0.2777778  -1.0555556   0.2777778), wk =   0.0164609
        k(   80) = (  -0.3888889   0.3888889   0.3888889), wk =   0.0054870
        k(   81) = (   0.5000000  -0.5000000   1.2777778), wk =   0.0164609
        k(   82) = (   0.3888889  -0.3888889   1.1666667), wk =   0.0164609
        k(   83) = (  -0.3888889  -1.3888889   0.3888889), wk =   0.0164609
        k(   84) = (  -0.5000000  -1.2777778   0.2777778), wk =   0.0164609
        k(   85) = (   0.5000000  -0.5000000  -0.5000000), wk =   0.0027435

     Dense  grid:    17261 G-vectors     FFT dimensions: (  40,  40,  40)

     Estimated max dynamical RAM per process >      24.01 MB

     Initial potential from superposition of free atoms

     starting charge       7.9989, renormalised to       8.0000
     Starting wfcs are    8 randomized atomic wfcs

     total cpu time spent up to now is        3.3 secs

     Self-consistent Calculation

     iteration #  1     ecut=    60.00 Ry     beta= 0.70
     Davidson diagonalization with overlap
     ethr =  1.00E-02,  avg # of iterations =  2.0

     Threshold (ethr) on eigenvalues was too large:
     Diagonalizing with lowered threshold

     Davidson diagonalization with overlap
     ethr =  5.72E-04,  avg # of iterations =  2.0

     total cpu time spent up to now is       11.8 secs

     total energy              =     -15.73952376 Ry
     estimated scf accuracy    <       0.05358704 Ry

     iteration #  2     ecut=    60.00 Ry     beta= 0.70
     Davidson diagonalization with overlap
     ethr =  6.70E-04,  avg # of iterations =  1.0

     total cpu time spent up to now is       15.2 secs

     total energy              =     -15.74122481 Ry
     estimated scf accuracy    <       0.00310085 Ry

     iteration #  3     ecut=    60.00 Ry     beta= 0.70
     Davidson diagonalization with overlap
     ethr =  3.88E-05,  avg # of iterations =  2.1

     total cpu time spent up to now is       19.8 secs

     total energy              =     -15.74183198 Ry
     estimated scf accuracy    <       0.00009370 Ry

     iteration #  4     ecut=    60.00 Ry     beta= 0.70
     Davidson diagonalization with overlap
     ethr =  1.17E-06,  avg # of iterations =  4.6

     total cpu time spent up to now is       25.8 secs

     total energy              =     -15.74190215 Ry
     estimated scf accuracy    <       0.00000611 Ry

     iteration #  5     ecut=    60.00 Ry     beta= 0.70
     Davidson diagonalization with overlap
     ethr =  7.63E-08,  avg # of iterations =  3.8

     total cpu time spent up to now is       31.2 secs

     End of self-consistent calculation

          k =-0.0556 0.0556 0.0556 (  2130 PWs)   bands (ev):

    -5.7069   5.5911   5.9504   5.9504

          k =-0.1667 0.1667-0.0556 (  2145 PWs)   bands (ev):

    -5.4961   4.3058   5.2874   5.8582

          k =-0.2778 0.2778-0.1667 (  2159 PWs)   bands (ev):

    -4.9822   2.3221   4.8297   5.4632

          k =-0.3889 0.3889-0.2778 (  2159 PWs)   bands (ev):

    -4.2240   0.5149   4.5665   5.0789

          k = 0.5000-0.5000 0.6111 (  2159 PWs)   bands (ev):

    -3.5017  -0.6992   4.5094   4.8239

          k = 0.3889-0.3889 0.5000 (  2163 PWs)   bands (ev):

    -3.6938  -0.4085   4.6473   4.7414

          k = 0.2778-0.2778 0.3889 (  2158 PWs)   bands (ev):

    -4.4954   1.0768   4.8530   4.9548

          k = 0.1667-0.1667 0.2778 (  2150 PWs)   bands (ev):

    -5.1849   2.9843   5.1578   5.3786

          k = 0.0556-0.0556 0.1667 (  2144 PWs)   bands (ev):

    -5.6011   4.9597   5.5980   5.7411

          k =-0.0556 0.2778 0.0556 (  2154 PWs)   bands (ev):

    -5.3901   4.1871   5.1118   5.2126

          k =-0.1667 0.3889-0.0556 (  2159 PWs)   bands (ev):

    -4.9754   2.8395   4.2776   4.9937

          k =-0.2778 0.5000-0.1667 (  2154 PWs)   bands (ev):

    -4.2877   1.1040   3.8256   4.6009

          k = 0.6111-0.3889 0.7222 (  2161 PWs)   bands (ev):

    -3.4847  -0.3271   3.5471   4.3845

          k = 0.5000-0.2778 0.6111 (  2166 PWs)   bands (ev):

    -3.2934  -0.6081   3.3933   4.4748

          k = 0.3889-0.1667 0.5000 (  2163 PWs)   bands (ev):

    -4.0204   0.5762   3.4344   4.8143

          k = 0.2778-0.0556 0.3889 (  2159 PWs)   bands (ev):

    -4.7761   2.2333   3.7858   5.2681

          k = 0.1667 0.0556 0.2778 (  2148 PWs)   bands (ev):

    -5.2869   3.5813   4.7896   5.5553

          k =-0.0556 0.5000 0.0556 (  2166 PWs)   bands (ev):

    -4.6602   2.4339   4.1222   4.1862

          k =-0.1667 0.6111-0.0556 (  2156 PWs)   bands (ev):

    -4.0578   1.2811   3.3942   3.8974

          k = 0.7222-0.2778 0.8333 (  2161 PWs)   bands (ev):

    -3.2556   0.0071   2.6799   3.7421

          k = 0.6111-0.1667 0.7222 (  2176 PWs)   bands (ev):

    -2.7394  -0.6706   2.2044   3.8947

          k = 0.5000-0.0556 0.6111 (  2165 PWs)   bands (ev):

    -3.3045   0.0696   2.1453   4.2967

          k = 0.3889 0.0556 0.5000 (  2160 PWs)   bands (ev):

    -4.0953   1.0482   2.8585   4.8206

          k = 0.2778 0.1667 0.3889 (  2164 PWs)   bands (ev):

    -4.6816   1.6907   4.3496   5.1451

          k =-0.0556 0.7222 0.0556 (  2152 PWs)   bands (ev):

    -3.5417   0.5639   3.3879   3.5423

          k = 0.8333-0.1667 0.9444 (  2164 PWs)   bands (ev):

    -2.7851  -0.3944   2.8324   3.2771

          k = 0.7222-0.0556 0.8333 (  2169 PWs)   bands (ev):

    -2.0838  -1.1027   1.9872   3.4075

          k = 0.6111 0.0556 0.7222 (  2176 PWs)   bands (ev):

    -2.5444  -0.6682   1.7915   3.8010

          k = 0.5000 0.1667 0.6111 (  2176 PWs)   bands (ev):

    -3.2912  -0.2667   2.6729   4.3577

          k = 0.3889 0.2778 0.5000 (  2163 PWs)   bands (ev):

    -3.8796   0.0403   4.1344   4.7862

          k =-0.0556-1.0556 0.0556 (  2171 PWs)   bands (ev):

    -2.0815  -1.2454   3.0714   3.2579

          k =-0.1667-0.9444-0.0556 (  2176 PWs)   bands (ev):

    -2.0407  -1.2281   2.7138   3.1583

          k =-0.2778-0.8333-0.1667 (  2169 PWs)   bands (ev):

    -2.6542  -0.5577   2.2295   3.5169

          k =-0.3889-0.7222-0.2778 (  2165 PWs)   bands (ev):

    -3.0812  -0.5686   2.8504   4.0853

          k =-0.5000-0.6111-0.3889 (  2158 PWs)   bands (ev):

    -3.3569  -0.7731   4.0781   4.6434

          k =-0.0556-0.8333 0.0556 (  2163 PWs)   bands (ev):

    -2.8502  -0.3585   3.1769   3.3532

          k =-0.1667-0.7222-0.0556 (  2162 PWs)   bands (ev):

    -3.4619   0.4514   3.0638   3.5206

          k =-0.2778-0.6111-0.1667 (  2160 PWs)   bands (ev):

    -3.8082   0.5518   3.2510   4.1004

          k =-0.0556-0.6111 0.0556 (  2157 PWs)   bands (ev):

    -4.1472   1.5019   3.7036   3.8220

          k =-0.1667-0.5000-0.0556 (  2153 PWs)   bands (ev):

    -4.5643   2.0770   3.8048   4.4033

          k =-0.0556-0.3889 0.0556 (  2162 PWs)   bands (ev):

    -5.0757   3.3368   4.6237   4.6357

          k =-0.1667 0.1667 0.1667 (  2151 PWs)   bands (ev):

    -5.3920   3.6757   5.5764   5.5764

          k =-0.2778 0.2778 0.0556 (  2149 PWs)   bands (ev):

    -5.0815   2.9042   4.2911   5.6268

          k =-0.3889 0.3889-0.0556 (  2156 PWs)   bands (ev):

    -4.4810   1.6279   3.2928   5.2292

          k = 0.5000-0.5000 0.8333 (  2160 PWs)   bands (ev):

    -3.6812   0.1120   3.0367   4.7450

          k = 0.3889-0.3889 0.7222 (  2169 PWs)   bands (ev):

    -3.1473  -0.6950   3.1437   4.3839

          k = 0.2778-0.2778 0.6111 (  2152 PWs)   bands (ev):

    -3.6689   0.0867   3.5112   4.2286

          k = 0.1667-0.1667 0.5000 (  2151 PWs)   bands (ev):

    -4.4711   1.6489   4.0671   4.3099

          k =-0.1667 0.3889 0.1667 (  2155 PWs)   bands (ev):

    -4.8768   2.3082   4.7166   4.7802

          k =-0.2778 0.5000 0.0556 (  2156 PWs)   bands (ev):

    -4.3745   1.5753   3.3312   4.6697

          k = 0.6111-0.3889 0.9444 (  2159 PWs)   bands (ev):

    -3.6270   0.4926   2.5123   4.1946

          k = 0.5000-0.2778 0.8333 (  2177 PWs)   bands (ev):

    -2.8883  -0.5463   2.3586   3.8111

          k = 0.3889-0.1667 0.7222 (  2176 PWs)   bands (ev):

    -3.0766  -0.2987   2.5313   3.7429

          k = 0.2778-0.0556 0.6111 (  2163 PWs)   bands (ev):

    -3.8821   0.9160   2.9520   4.0343

          k =-0.1667 0.6111 0.1667 (  2153 PWs)   bands (ev):

    -3.9730   0.9840   3.3926   3.9656

          k = 0.7222-0.2778 1.0556 (  2164 PWs)   bands (ev):

    -3.3074   0.2345   2.6606   3.4859

          k = 0.6111-0.1667 0.9444 (  2178 PWs)   bands (ev):

    -2.5006  -0.6170   2.1486   2.9951

          k = 0.5000-0.0556 0.8333 (  2181 PWs)   bands (ev):

    -2.3267  -0.7921   1.9342   3.0487

          k = 0.3889 0.0556 0.7222 (  2174 PWs)   bands (ev):

    -3.0888  -0.0554   2.2721   3.5413

          k =-0.1667-1.1667 0.1667 (  2161 PWs)   bands (ev):

    -2.7363  -0.4520   2.4722   3.5170

          k =-0.2778-1.0556 0.0556 (  2173 PWs)   bands (ev):

    -1.9730  -1.2039   2.3644   2.8961

          k =-0.3889-0.9444-0.0556 (  2177 PWs)   bands (ev):

    -1.9069  -1.1864   2.1289   2.6585

          k =-0.5000-0.8333-0.1667 (  2176 PWs)   bands (ev):

    -2.5372  -0.7191   2.1005   3.3229

          k =-0.1667-0.9444 0.1667 (  2171 PWs)   bands (ev):

    -2.0469  -1.1887   2.2870   3.4253

          k =-0.2778-0.8333 0.0556 (  2172 PWs)   bands (ev):

    -2.6628  -0.4784   2.4636   3.0957

          k =-0.1667-0.7222 0.1667 (  2164 PWs)   bands (ev):

    -3.3904   0.2859   2.8449   3.6986

          k =-0.2778 0.2778 0.2778 (  2154 PWs)   bands (ev):

    -4.7856   1.6767   5.1841   5.1841

          k =-0.3889 0.3889 0.1667 (  2159 PWs)   bands (ev):

    -4.3937   1.1040   3.8954   5.1805

          k = 0.5000-0.5000 1.0556 (  2157 PWs)   bands (ev):

    -3.7345   0.5415   2.4515   4.7192

          k = 0.3889-0.3889 0.9444 (  2162 PWs)   bands (ev):

    -2.9339  -0.3216   1.8935   4.1969

          k = 0.2778-0.2778 0.8333 (  2169 PWs)   bands (ev):

    -2.6657  -0.6543   2.1418   3.8309

          k =-0.2778 0.5000 0.2778 (  2156 PWs)   bands (ev):

    -4.1190   0.5457   4.2969   4.5225

          k = 0.6111-0.3889 1.1667 (  2167 PWs)   bands (ev):

    -3.5740   0.1117   2.9809   4.2592

          k = 0.5000-0.2778 1.0556 (  2174 PWs)   bands (ev):

    -2.8250  -0.3707   1.9654   3.6774

          k = 0.3889-0.1667 0.9444 (  2176 PWs)   bands (ev):

    -2.1777  -0.9657   1.8688   3.2227

          k =-0.2778-1.2778 0.2778 (  2173 PWs)   bands (ev):

    -3.1683  -0.3087   2.7545   3.9936

          k =-0.3889-1.1667 0.1667 (  2176 PWs)   bands (ev):

    -2.5726  -0.6695   2.1233   3.3909

          k =-0.5000-1.0556 0.0556 (  2184 PWs)   bands (ev):

    -1.8787  -1.1808   2.0481   2.5651

          k =-0.2778-1.0556 0.2778 (  2164 PWs)   bands (ev):

    -2.2845  -0.9185   1.7910   3.7478

          k =-0.3889 0.3889 0.3889 (  2156 PWs)   bands (ev):

    -3.9833  -0.0055   4.9267   4.9267

          k = 0.5000-0.5000 1.2778 (  2156 PWs)   bands (ev):

    -3.5914  -0.3583   3.8019   4.7861

          k = 0.3889-0.3889 1.1667 (  2175 PWs)   bands (ev):

    -2.9953  -0.5381   2.3985   4.2614

          k =-0.3889-1.3889 0.3889 (  2168 PWs)   bands (ev):

    -3.3956  -0.6524   3.9489   4.5511

          k =-0.5000-1.2778 0.2778 (  2176 PWs)   bands (ev):

    -3.0433  -0.6692   2.8968   4.0886

          k = 0.5000-0.5000-0.5000 (  2138 PWs)   bands (ev):

    -3.4628  -0.8246   4.8393   4.8393

     highest occupied level (ev):     5.9504

!    total energy              =     -15.74190551 Ry
     estimated scf accuracy    <       0.00000020 Ry

     The total energy is the sum of the following terms:
     one-electron contribution =       4.61892954 Ry
     hartree contribution      =       1.11208413 Ry
     xc contribution           =      -4.79068388 Ry
     ewald contribution        =     -16.68223531 Ry

     convergence has been achieved in   5 iterations

     Forces acting on atoms (cartesian axes, Ry/au):

     atom    1 type  1   force =     0.00000000    0.00000000    0.00000000
     atom    2 type  1   force =     0.00000000    0.00000000    0.00000000

     Total force =     0.000000     Total SCF correction =     0.000000


     Computing stress (Cartesian axis) and pressure

          total   stress  (Ry/bohr**3)                   (kbar)     P=        3.42
   0.00002326   0.00000000   0.00000000            3.42        0.00        0.00
   0.00000000   0.00002326   0.00000000            0.00        3.42        0.00
   0.00000000   0.00000000   0.00002326            0.00        0.00        3.42


     Writing all to output data dir ./Si2.save/
 
     init_run     :      2.95s CPU      3.06s WALL (       1 calls)
     electrons    :     26.24s CPU     27.93s WALL (       1 calls)
     forces       :      0.19s CPU      0.20s WALL (       1 calls)
     stress       :      1.69s CPU      1.70s WALL (       1 calls)

     Called by init_run:
     wfcinit      :      2.58s CPU      2.66s WALL (       1 calls)
     potinit      :      0.10s CPU      0.11s WALL (       1 calls)
     hinit0       :      0.17s CPU      0.19s WALL (       1 calls)

     Called by electrons:
     c_bands      :     21.80s CPU     23.29s WALL (       6 calls)
     sum_band     :      3.95s CPU      4.09s WALL (       6 calls)
     v_of_rho     :      0.55s CPU      0.56s WALL (       6 calls)
     mix_rho      :      0.02s CPU      0.02s WALL (       6 calls)

     Called by c_bands:
     init_us_2    :      1.51s CPU      1.59s WALL (    1275 calls)
     init_us_2:cp :      1.48s CPU      1.57s WALL (    1275 calls)
     cegterg      :     20.75s CPU     21.52s WALL (     510 calls)

     Called by *egterg:
     cdiaghg      :      0.52s CPU      0.57s WALL (    1739 calls)
     h_psi        :     21.23s CPU     21.92s WALL (    1909 calls)
     g_psi        :      0.07s CPU      0.08s WALL (    1314 calls)

     Called by h_psi:
     h_psi:calbec :      0.40s CPU      0.42s WALL (    1909 calls)
     vloc_psi     :     20.47s CPU     21.11s WALL (    1909 calls)
     add_vuspsi   :      0.23s CPU      0.26s WALL (    1909 calls)

     General routines
     calbec       :      0.42s CPU      0.46s WALL (    2334 calls)
     fft          :      0.09s CPU      0.11s WALL (      68 calls)
     ffts         :      0.01s CPU      0.01s WALL (       6 calls)
     fftw         :     19.71s CPU     20.35s WALL (   15550 calls)
 
     Parallel routines
 
     PWSCF        :     31.37s CPU     34.00s WALL

 
   This run was terminated on:  19:18:21  18Feb2022            

=------------------------------------------------------------------------------=
   JOB DONE.
=------------------------------------------------------------------------------=
