
     Program PWSCF v.7.0 starts on 18Feb2022 at 19:16:38 

     This program is part of the open-source Quantum ESPRESSO suite
     for quantum simulation of materials; please cite
         "P. Giannozzi et al., J. Phys.:Condens. Matter 21 395502 (2009);
         "P. Giannozzi et al., J. Phys.:Condens. Matter 29 465901 (2017);
         "P. Giannozzi et al., J. Chem. Phys. 152 154105 (2020);
          URL http://www.quantum-espresso.org", 
     in publications or presentations arising from this work. More details at
     http://www.quantum-espresso.org/quote

     Parallel version (MPI), running on     1 processors

     MPI processes distributed on     1 nodes
     88101 MiB available memory on the printing compute node when the environment starts
 
     Reading input from Si.scf.5.in

     Current dimensions of program PWSCF are:
     Max number of different atomic species (ntypx) = 10
     Max number of k-points (npk) =  40000
     Max angular momentum in pseudopotentials (lmaxx) =  4

     Subspace diagonalization in iterative solution of the eigenvalue problem:
     a serial algorithm will be used

 
     G-vector sticks info
     --------------------
     sticks:   dense  smooth     PW     G-vecs:    dense   smooth      PW
     Sum         877     877    265                17261    17261    2891
 
     Using Slab Decomposition
 


     bravais-lattice index     =            2
     lattice parameter (alat)  =      10.3330  a.u.
     unit-cell volume          =     275.8159 (a.u.)^3
     number of atoms/cell      =            2
     number of atomic types    =            1
     number of electrons       =         8.00
     number of Kohn-Sham states=            4
     kinetic-energy cutoff     =      60.0000  Ry
     charge density cutoff     =     240.0000  Ry
     scf convergence threshold =      1.0E-06
     mixing beta               =       0.7000
     number of iterations used =            8  plain     mixing
     Exchange-correlation=  SLA  PW   PBE  PBE
                           (   1   4   3   4   0   0   0)

     celldm(1)=  10.333000  celldm(2)=   0.000000  celldm(3)=   0.000000
     celldm(4)=   0.000000  celldm(5)=   0.000000  celldm(6)=   0.000000

     crystal axes: (cart. coord. in units of alat)
               a(1) = (  -0.500000   0.000000   0.500000 )  
               a(2) = (   0.000000   0.500000   0.500000 )  
               a(3) = (  -0.500000   0.500000   0.000000 )  

     reciprocal axes: (cart. coord. in units 2 pi/alat)
               b(1) = ( -1.000000 -1.000000  1.000000 )  
               b(2) = (  1.000000  1.000000  1.000000 )  
               b(3) = ( -1.000000  1.000000 -1.000000 )  


     PseudoPot. # 1 for Si read from file:
     ./Si.pbe-rrkj.UPF
     MD5 check sum: cf7ab5690cd9a85b22c4813f7e365554
     Pseudo is Norm-conserving, Zval =  4.0
     Generated by new atomic code, or converted to UPF format
     Using radial grid of  883 points,  3 beta functions with: 
                l(1) =   0
                l(2) =   0
                l(3) =   1

     atomic species   valence    mass     pseudopotential
        Si             4.00    28.08600     Si( 1.00)

     48 Sym. Ops., with inversion, found (24 have fractional translation)



   Cartesian axes

     site n.     atom                  positions (alat units)
         1           Si  tau(   1) = (   0.0000000   0.0000000   0.0000000  )
         2           Si  tau(   2) = (   0.2500000   0.2500000   0.2500000  )

     number of k points=    19
                       cart. coord. in units 2pi/alat
        k(    1) = (  -0.1000000   0.1000000   0.1000000), wk =   0.0320000
        k(    2) = (  -0.3000000   0.3000000  -0.1000000), wk =   0.0960000
        k(    3) = (   0.5000000  -0.5000000   0.7000000), wk =   0.0960000
        k(    4) = (   0.3000000  -0.3000000   0.5000000), wk =   0.0960000
        k(    5) = (   0.1000000  -0.1000000   0.3000000), wk =   0.0960000
        k(    6) = (  -0.1000000   0.5000000   0.1000000), wk =   0.0960000
        k(    7) = (   0.7000000  -0.3000000   0.9000000), wk =   0.1920000
        k(    8) = (   0.5000000  -0.1000000   0.7000000), wk =   0.1920000
        k(    9) = (   0.3000000   0.1000000   0.5000000), wk =   0.1920000
        k(   10) = (  -0.1000000  -1.1000000   0.1000000), wk =   0.0960000
        k(   11) = (  -0.3000000  -0.9000000  -0.1000000), wk =   0.1920000
        k(   12) = (  -0.5000000  -0.7000000  -0.3000000), wk =   0.0960000
        k(   13) = (  -0.1000000  -0.7000000   0.1000000), wk =   0.0960000
        k(   14) = (  -0.3000000   0.3000000   0.3000000), wk =   0.0320000
        k(   15) = (   0.5000000  -0.5000000   1.1000000), wk =   0.0960000
        k(   16) = (   0.3000000  -0.3000000   0.9000000), wk =   0.0960000
        k(   17) = (  -0.3000000  -1.3000000   0.3000000), wk =   0.0960000
        k(   18) = (  -0.5000000  -1.1000000   0.1000000), wk =   0.0960000
        k(   19) = (   0.5000000  -0.5000000  -0.5000000), wk =   0.0160000

     Dense  grid:    17261 G-vectors     FFT dimensions: (  40,  40,  40)

     Estimated max dynamical RAM per process >      15.29 MB

     Initial potential from superposition of free atoms

     starting charge       7.9989, renormalised to       8.0000
     Starting wfcs are    8 randomized atomic wfcs

     total cpu time spent up to now is        1.3 secs

     Self-consistent Calculation

     iteration #  1     ecut=    60.00 Ry     beta= 0.70
     Davidson diagonalization with overlap
     ethr =  1.00E-02,  avg # of iterations =  2.0

     Threshold (ethr) on eigenvalues was too large:
     Diagonalizing with lowered threshold

     Davidson diagonalization with overlap
     ethr =  5.71E-04,  avg # of iterations =  2.0

     total cpu time spent up to now is        3.3 secs

     total energy              =     -15.73950512 Ry
     estimated scf accuracy    <       0.05366903 Ry

     iteration #  2     ecut=    60.00 Ry     beta= 0.70
     Davidson diagonalization with overlap
     ethr =  6.71E-04,  avg # of iterations =  1.0

     total cpu time spent up to now is        4.1 secs

     total energy              =     -15.74123409 Ry
     estimated scf accuracy    <       0.00309265 Ry

     iteration #  3     ecut=    60.00 Ry     beta= 0.70
     Davidson diagonalization with overlap
     ethr =  3.87E-05,  avg # of iterations =  2.0

     total cpu time spent up to now is        5.2 secs

     total energy              =     -15.74179946 Ry
     estimated scf accuracy    <       0.00008529 Ry

     iteration #  4     ecut=    60.00 Ry     beta= 0.70
     Davidson diagonalization with overlap
     ethr =  1.07E-06,  avg # of iterations =  4.8

     total cpu time spent up to now is        6.6 secs

     total energy              =     -15.74187087 Ry
     estimated scf accuracy    <       0.00000190 Ry

     iteration #  5     ecut=    60.00 Ry     beta= 0.70
     Davidson diagonalization with overlap
     ethr =  2.38E-08,  avg # of iterations =  5.1

     total cpu time spent up to now is        8.2 secs

     End of self-consistent calculation

          k =-0.1000 0.1000 0.1000 (  2139 PWs)   bands (ev):

    -5.6182   4.8893   5.8228   5.8228

          k =-0.3000 0.3000-0.1000 (  2151 PWs)   bands (ev):

    -4.9480   2.4334   4.2894   5.5200

          k = 0.5000-0.5000 0.7000 (  2157 PWs)   bands (ev):

    -3.5719  -0.4402   3.9553   4.7945

          k = 0.3000-0.3000 0.5000 (  2156 PWs)   bands (ev):

    -4.0348   0.3317   4.3642   4.5694

          k = 0.1000-0.1000 0.3000 (  2154 PWs)   bands (ev):

    -5.2780   3.6012   5.0299   5.1932

          k =-0.1000 0.5000 0.1000 (  2164 PWs)   bands (ev):

    -4.6066   2.1981   4.0666   4.2218

          k = 0.7000-0.3000 0.9000 (  2162 PWs)   bands (ev):

    -3.3729   0.2305   2.6703   3.6594

          k = 0.5000-0.1000 0.7000 (  2169 PWs)   bands (ev):

    -2.9345  -0.3587   2.1240   3.8392

          k = 0.3000 0.1000 0.5000 (  2155 PWs)   bands (ev):

    -4.3017   1.3085   3.4090   4.6988

          k =-0.1000-1.1000 0.1000 (  2170 PWs)   bands (ev):

    -2.3695  -0.8968   2.8121   3.3315

          k =-0.3000-0.9000-0.1000 (  2179 PWs)   bands (ev):

    -2.2461  -0.9165   2.1909   3.1037

          k =-0.5000-0.7000-0.3000 (  2174 PWs)   bands (ev):

    -3.1222  -0.6874   3.1186   4.2229

          k =-0.1000-0.7000 0.1000 (  2165 PWs)   bands (ev):

    -3.6243   0.6706   3.2275   3.6348

          k =-0.3000 0.3000 0.3000 (  2160 PWs)   bands (ev):

    -4.6349   1.3056   5.1198   5.1198

          k = 0.5000-0.5000 1.1000 (  2166 PWs)   bands (ev):

    -3.7191   0.3944   2.6426   4.7267

          k = 0.3000-0.3000 0.9000 (  2166 PWs)   bands (ev):

    -2.4807  -0.7790   1.8788   3.8514

          k =-0.3000-1.3000 0.3000 (  2175 PWs)   bands (ev):

    -3.2289  -0.3670   2.9511   4.1059

          k =-0.5000-1.1000 0.1000 (  2190 PWs)   bands (ev):

    -2.1559  -0.9478   1.9794   2.8533

          k = 0.5000-0.5000-0.5000 (  2138 PWs)   bands (ev):

    -3.4629  -0.8247   4.8392   4.8392

     highest occupied level (ev):     5.8228

!    total energy              =     -15.74187324 Ry
     estimated scf accuracy    <       0.00000017 Ry

     The total energy is the sum of the following terms:
     one-electron contribution =       4.61894842 Ry
     hartree contribution      =       1.11212382 Ry
     xc contribution           =      -4.79071017 Ry
     ewald contribution        =     -16.68223531 Ry

     convergence has been achieved in   5 iterations

     Forces acting on atoms (cartesian axes, Ry/au):

     atom    1 type  1   force =    -0.00000000    0.00000000    0.00000000
     atom    2 type  1   force =     0.00000000   -0.00000000   -0.00000000

     Total force =     0.000000     Total SCF correction =     0.000000


     Computing stress (Cartesian axis) and pressure

          total   stress  (Ry/bohr**3)                   (kbar)     P=        3.35
   0.00002276   0.00000000  -0.00000000            3.35        0.00       -0.00
  -0.00000000   0.00002276   0.00000000           -0.00        3.35        0.00
  -0.00000000   0.00000000   0.00002276           -0.00        0.00        3.35


     Writing all to output data dir ./Si2.save/
 
     init_run     :      0.89s CPU      0.96s WALL (       1 calls)
     electrons    :      6.53s CPU      6.93s WALL (       1 calls)
     forces       :      0.05s CPU      0.06s WALL (       1 calls)
     stress       :      0.49s CPU      0.49s WALL (       1 calls)

     Called by init_run:
     wfcinit      :      0.57s CPU      0.60s WALL (       1 calls)
     potinit      :      0.10s CPU      0.11s WALL (       1 calls)
     hinit0       :      0.18s CPU      0.19s WALL (       1 calls)

     Called by electrons:
     c_bands      :      5.09s CPU      5.42s WALL (       6 calls)
     sum_band     :      0.97s CPU      0.99s WALL (       6 calls)
     v_of_rho     :      0.54s CPU      0.57s WALL (       6 calls)
     mix_rho      :      0.02s CPU      0.02s WALL (       6 calls)

     Called by c_bands:
     init_us_2    :      0.35s CPU      0.36s WALL (     285 calls)
     init_us_2:cp :      0.34s CPU      0.36s WALL (     285 calls)
     cegterg      :      4.84s CPU      5.01s WALL (     114 calls)

     Called by *egterg:
     cdiaghg      :      0.13s CPU      0.14s WALL (     416 calls)
     h_psi        :      4.91s CPU      5.07s WALL (     454 calls)
     g_psi        :      0.02s CPU      0.02s WALL (     321 calls)

     Called by h_psi:
     h_psi:calbec :      0.09s CPU      0.10s WALL (     454 calls)
     vloc_psi     :      4.73s CPU      4.87s WALL (     454 calls)
     add_vuspsi   :      0.06s CPU      0.06s WALL (     454 calls)

     General routines
     calbec       :      0.10s CPU      0.11s WALL (     549 calls)
     fft          :      0.09s CPU      0.11s WALL (      68 calls)
     ffts         :      0.01s CPU      0.01s WALL (       6 calls)
     fftw         :      4.54s CPU      4.66s WALL (    3576 calls)
 
     Parallel routines
 
     PWSCF        :      8.18s CPU      9.06s WALL

 
   This run was terminated on:  19:16:47  18Feb2022            

=------------------------------------------------------------------------------=
   JOB DONE.
=------------------------------------------------------------------------------=
