
     Program PWSCF v.7.0 starts on 18Feb2022 at 19:17: 2 

     This program is part of the open-source Quantum ESPRESSO suite
     for quantum simulation of materials; please cite
         "P. Giannozzi et al., J. Phys.:Condens. Matter 21 395502 (2009);
         "P. Giannozzi et al., J. Phys.:Condens. Matter 29 465901 (2017);
         "P. Giannozzi et al., J. Chem. Phys. 152 154105 (2020);
          URL http://www.quantum-espresso.org", 
     in publications or presentations arising from this work. More details at
     http://www.quantum-espresso.org/quote

     Parallel version (MPI), running on     1 processors

     MPI processes distributed on     1 nodes
     88096 MiB available memory on the printing compute node when the environment starts
 
     Reading input from Si.scf.7.in

     Current dimensions of program PWSCF are:
     Max number of different atomic species (ntypx) = 10
     Max number of k-points (npk) =  40000
     Max angular momentum in pseudopotentials (lmaxx) =  4

     Subspace diagonalization in iterative solution of the eigenvalue problem:
     a serial algorithm will be used

 
     G-vector sticks info
     --------------------
     sticks:   dense  smooth     PW     G-vecs:    dense   smooth      PW
     Sum         877     877    271                17261    17261    2975
 
     Using Slab Decomposition
 


     bravais-lattice index     =            2
     lattice parameter (alat)  =      10.3330  a.u.
     unit-cell volume          =     275.8159 (a.u.)^3
     number of atoms/cell      =            2
     number of atomic types    =            1
     number of electrons       =         8.00
     number of Kohn-Sham states=            4
     kinetic-energy cutoff     =      60.0000  Ry
     charge density cutoff     =     240.0000  Ry
     scf convergence threshold =      1.0E-06
     mixing beta               =       0.7000
     number of iterations used =            8  plain     mixing
     Exchange-correlation=  SLA  PW   PBE  PBE
                           (   1   4   3   4   0   0   0)

     celldm(1)=  10.333000  celldm(2)=   0.000000  celldm(3)=   0.000000
     celldm(4)=   0.000000  celldm(5)=   0.000000  celldm(6)=   0.000000

     crystal axes: (cart. coord. in units of alat)
               a(1) = (  -0.500000   0.000000   0.500000 )  
               a(2) = (   0.000000   0.500000   0.500000 )  
               a(3) = (  -0.500000   0.500000   0.000000 )  

     reciprocal axes: (cart. coord. in units 2 pi/alat)
               b(1) = ( -1.000000 -1.000000  1.000000 )  
               b(2) = (  1.000000  1.000000  1.000000 )  
               b(3) = ( -1.000000  1.000000 -1.000000 )  


     PseudoPot. # 1 for Si read from file:
     ./Si.pbe-rrkj.UPF
     MD5 check sum: cf7ab5690cd9a85b22c4813f7e365554
     Pseudo is Norm-conserving, Zval =  4.0
     Generated by new atomic code, or converted to UPF format
     Using radial grid of  883 points,  3 beta functions with: 
                l(1) =   0
                l(2) =   0
                l(3) =   1

     atomic species   valence    mass     pseudopotential
        Si             4.00    28.08600     Si( 1.00)

     48 Sym. Ops., with inversion, found (24 have fractional translation)



   Cartesian axes

     site n.     atom                  positions (alat units)
         1           Si  tau(   1) = (   0.0000000   0.0000000   0.0000000  )
         2           Si  tau(   2) = (   0.2500000   0.2500000   0.2500000  )

     number of k points=    44
                       cart. coord. in units 2pi/alat
        k(    1) = (  -0.0714286   0.0714286   0.0714286), wk =   0.0116618
        k(    2) = (  -0.2142857   0.2142857  -0.0714286), wk =   0.0349854
        k(    3) = (  -0.3571429   0.3571429  -0.2142857), wk =   0.0349854
        k(    4) = (   0.5000000  -0.5000000   0.6428571), wk =   0.0349854
        k(    5) = (   0.3571429  -0.3571429   0.5000000), wk =   0.0349854
        k(    6) = (   0.2142857  -0.2142857   0.3571429), wk =   0.0349854
        k(    7) = (   0.0714286  -0.0714286   0.2142857), wk =   0.0349854
        k(    8) = (  -0.0714286   0.3571429   0.0714286), wk =   0.0349854
        k(    9) = (  -0.2142857   0.5000000  -0.0714286), wk =   0.0699708
        k(   10) = (   0.6428571  -0.3571429   0.7857143), wk =   0.0699708
        k(   11) = (   0.5000000  -0.2142857   0.6428571), wk =   0.0699708
        k(   12) = (   0.3571429  -0.0714286   0.5000000), wk =   0.0699708
        k(   13) = (   0.2142857   0.0714286   0.3571429), wk =   0.0699708
        k(   14) = (  -0.0714286   0.6428571   0.0714286), wk =   0.0349854
        k(   15) = (   0.7857143  -0.2142857   0.9285714), wk =   0.0699708
        k(   16) = (   0.6428571  -0.0714286   0.7857143), wk =   0.0699708
        k(   17) = (   0.5000000   0.0714286   0.6428571), wk =   0.0699708
        k(   18) = (   0.3571429   0.2142857   0.5000000), wk =   0.0699708
        k(   19) = (  -0.0714286  -1.0714286   0.0714286), wk =   0.0349854
        k(   20) = (  -0.2142857  -0.9285714  -0.0714286), wk =   0.0699708
        k(   21) = (  -0.3571429  -0.7857143  -0.2142857), wk =   0.0699708
        k(   22) = (  -0.5000000  -0.6428571  -0.3571429), wk =   0.0349854
        k(   23) = (  -0.0714286  -0.7857143   0.0714286), wk =   0.0349854
        k(   24) = (  -0.2142857  -0.6428571  -0.0714286), wk =   0.0699708
        k(   25) = (  -0.0714286  -0.5000000   0.0714286), wk =   0.0349854
        k(   26) = (  -0.2142857   0.2142857   0.2142857), wk =   0.0116618
        k(   27) = (  -0.3571429   0.3571429   0.0714286), wk =   0.0349854
        k(   28) = (   0.5000000  -0.5000000   0.9285714), wk =   0.0349854
        k(   29) = (   0.3571429  -0.3571429   0.7857143), wk =   0.0349854
        k(   30) = (   0.2142857  -0.2142857   0.6428571), wk =   0.0349854
        k(   31) = (  -0.2142857   0.5000000   0.2142857), wk =   0.0349854
        k(   32) = (   0.6428571  -0.3571429   1.0714286), wk =   0.0699708
        k(   33) = (   0.5000000  -0.2142857   0.9285714), wk =   0.0699708
        k(   34) = (   0.3571429  -0.0714286   0.7857143), wk =   0.0699708
        k(   35) = (  -0.2142857  -1.2142857   0.2142857), wk =   0.0349854
        k(   36) = (  -0.3571429  -1.0714286   0.0714286), wk =   0.0699708
        k(   37) = (  -0.5000000  -0.9285714  -0.0714286), wk =   0.0349854
        k(   38) = (  -0.2142857  -0.9285714   0.2142857), wk =   0.0349854
        k(   39) = (  -0.3571429   0.3571429   0.3571429), wk =   0.0116618
        k(   40) = (   0.5000000  -0.5000000   1.2142857), wk =   0.0349854
        k(   41) = (   0.3571429  -0.3571429   1.0714286), wk =   0.0349854
        k(   42) = (  -0.3571429  -1.3571429   0.3571429), wk =   0.0349854
        k(   43) = (  -0.5000000  -1.2142857   0.2142857), wk =   0.0349854
        k(   44) = (   0.5000000  -0.5000000  -0.5000000), wk =   0.0058309

     Dense  grid:    17261 G-vectors     FFT dimensions: (  40,  40,  40)

     Estimated max dynamical RAM per process >      18.59 MB

     Initial potential from superposition of free atoms

     starting charge       7.9989, renormalised to       8.0000
     Starting wfcs are    8 randomized atomic wfcs

     total cpu time spent up to now is        2.0 secs

     Self-consistent Calculation

     iteration #  1     ecut=    60.00 Ry     beta= 0.70
     Davidson diagonalization with overlap
     ethr =  1.00E-02,  avg # of iterations =  2.0

     Threshold (ethr) on eigenvalues was too large:
     Diagonalizing with lowered threshold

     Davidson diagonalization with overlap
     ethr =  5.70E-04,  avg # of iterations =  2.0

     total cpu time spent up to now is        6.5 secs

     total energy              =     -15.73950734 Ry
     estimated scf accuracy    <       0.05362751 Ry

     iteration #  2     ecut=    60.00 Ry     beta= 0.70
     Davidson diagonalization with overlap
     ethr =  6.70E-04,  avg # of iterations =  1.0

     total cpu time spent up to now is        8.3 secs

     total energy              =     -15.74122200 Ry
     estimated scf accuracy    <       0.00309961 Ry

     iteration #  3     ecut=    60.00 Ry     beta= 0.70
     Davidson diagonalization with overlap
     ethr =  3.87E-05,  avg # of iterations =  2.1

     total cpu time spent up to now is       10.7 secs

     total energy              =     -15.74182640 Ry
     estimated scf accuracy    <       0.00009261 Ry

     iteration #  4     ecut=    60.00 Ry     beta= 0.70
     Davidson diagonalization with overlap
     ethr =  1.16E-06,  avg # of iterations =  4.7

     total cpu time spent up to now is       13.8 secs

     total energy              =     -15.74190132 Ry
     estimated scf accuracy    <       0.00000489 Ry

     iteration #  5     ecut=    60.00 Ry     beta= 0.70
     Davidson diagonalization with overlap
     ethr =  6.11E-08,  avg # of iterations =  4.2

     total cpu time spent up to now is       16.8 secs

     End of self-consistent calculation

          k =-0.0714 0.0714 0.0714 (  2130 PWs)   bands (ev):

    -5.6810   5.3606   5.9106   5.9106

          k =-0.2143 0.2143-0.0714 (  2149 PWs)   bands (ev):

    -5.3343   3.6254   4.9364   5.7581

          k =-0.3571 0.3571-0.2143 (  2155 PWs)   bands (ev):

    -4.5112   1.1684   4.4457   5.2232

          k = 0.5000-0.5000 0.6429 (  2159 PWs)   bands (ev):

    -3.5245  -0.6208   4.3277   4.8145

          k = 0.3571-0.3571 0.5000 (  2161 PWs)   bands (ev):

    -3.8120  -0.1716   4.5483   4.6852

          k = 0.2143-0.2143 0.3571 (  2160 PWs)   bands (ev):

    -4.8303   1.9552   4.8893   5.0373

          k = 0.0714-0.0714 0.2143 (  2146 PWs)   bands (ev):

    -5.5065   4.4832   5.3973   5.5726

          k =-0.0714 0.3571 0.0714 (  2158 PWs)   bands (ev):

    -5.1595   3.4672   4.7667   4.8209

          k =-0.2143 0.5000-0.0714 (  2155 PWs)   bands (ev):

    -4.4868   1.8233   3.6527   4.5132

          k = 0.6429-0.3571 0.7857 (  2163 PWs)   bands (ev):

    -3.4691  -0.0799   3.1174   4.1380

          k = 0.5000-0.2143 0.6429 (  2170 PWs)   bands (ev):

    -3.1850  -0.4960   2.8628   4.2639

          k = 0.3571-0.0714 0.5000 (  2160 PWs)   bands (ev):

    -4.1773   1.1467   3.0474   4.7956

          k = 0.2143 0.0714 0.3571 (  2161 PWs)   bands (ev):

    -4.9925   2.7227   4.2771   5.2858

          k =-0.0714 0.6429 0.0714 (  2159 PWs)   bands (ev):

    -3.9692   1.2009   3.5420   3.7454

          k = 0.7857-0.2143 0.9286 (  2166 PWs)   bands (ev):

    -3.0285  -0.0919   2.7169   3.3527

          k = 0.6429-0.0714 0.7857 (  2173 PWs)   bands (ev):

    -2.3099  -0.8804   1.8398   3.5339

          k = 0.5000 0.0714 0.6429 (  2169 PWs)   bands (ev):

    -3.1714  -0.0907   2.1278   4.1373

          k = 0.3571 0.2143 0.5000 (  2160 PWs)   bands (ev):

    -4.0484   0.4840   3.8391   4.7579

          k =-0.0714-1.0714 0.0714 (  2165 PWs)   bands (ev):

    -2.1882  -1.1196   2.9852   3.2794

          k =-0.2143-0.9286-0.0714 (  2171 PWs)   bands (ev):

    -2.1211  -1.1036   2.5000   3.1306

          k =-0.3571-0.7857-0.2143 (  2170 PWs)   bands (ev):

    -2.8342  -0.5367   2.3537   3.7261

          k =-0.5000-0.6429-0.3571 (  2162 PWs)   bands (ev):

    -3.2882  -0.7436   3.7328   4.5175

          k =-0.0714-0.7857 0.0714 (  2157 PWs)   bands (ev):

    -3.1448   0.0229   3.1703   3.4361

          k =-0.2143-0.6429-0.0714 (  2159 PWs)   bands (ev):

    -3.8269   0.8940   3.1191   3.8182

          k =-0.0714-0.5000 0.0714 (  2162 PWs)   bands (ev):

    -4.6446   2.3644   4.0999   4.1966

          k =-0.2143 0.2143 0.2143 (  2151 PWs)   bands (ev):

    -5.1652   2.7979   5.3970   5.3970

          k =-0.3571 0.3571 0.0714 (  2154 PWs)   bands (ev):

    -4.6624   1.9143   3.6332   5.3516

          k = 0.5000-0.5000 0.9286 (  2163 PWs)   bands (ev):

    -3.7300   0.4953   2.5104   4.7213

          k = 0.3571-0.3571 0.7857 (  2163 PWs)   bands (ev):

    -2.9456  -0.6591   2.5663   4.1806

          k = 0.2143-0.2143 0.6429 (  2153 PWs)   bands (ev):

    -3.7007   0.4568   3.1885   3.9851

          k =-0.2143 0.5000 0.2143 (  2146 PWs)   bands (ev):

    -4.3373   1.1816   4.1376   4.3935

          k = 0.6429-0.3571 1.0714 (  2167 PWs)   bands (ev):

    -3.5527   0.4149   2.5871   3.9697

          k = 0.5000-0.2143 0.9286 (  2173 PWs)   bands (ev):

    -2.5508  -0.6196   1.9539   3.3255

          k = 0.3571-0.0714 0.7857 (  2176 PWs)   bands (ev):

    -2.8155  -0.3246   2.2810   3.2363

          k =-0.2143-1.2143 0.2143 (  2163 PWs)   bands (ev):

    -2.9487  -0.2814   2.4324   3.6993

          k =-0.3571-1.0714 0.0714 (  2183 PWs)   bands (ev):

    -2.0265  -1.0923   2.1364   2.8124

          k =-0.5000-0.9286-0.0714 (  2184 PWs)   bands (ev):

    -1.9793  -1.0920   2.0116   2.6645

          k =-0.2143-0.9286 0.2143 (  2169 PWs)   bands (ev):

    -2.1667  -1.0405   2.0250   3.5529

          k =-0.3571 0.3571 0.3571 (  2159 PWs)   bands (ev):

    -4.2190   0.4238   4.9834   4.9834

          k = 0.5000-0.5000 1.2143 (  2161 PWs)   bands (ev):

    -3.6456  -0.0980   3.3579   4.7616

          k = 0.3571-0.3571 1.0714 (  2172 PWs)   bands (ev):

    -2.7306  -0.5357   1.8513   4.0640

          k =-0.3571-1.3571 0.3571 (  2161 PWs)   bands (ev):

    -3.3492  -0.5537   3.5718   4.3988

          k =-0.5000-1.2143 0.2143 (  2182 PWs)   bands (ev):

    -2.7761  -0.6574   2.3629   3.6630

          k = 0.5000-0.5000-0.5000 (  2138 PWs)   bands (ev):

    -3.4629  -0.8247   4.8392   4.8392

     highest occupied level (ev):     5.9106

!    total energy              =     -15.74190433 Ry
     estimated scf accuracy    <       0.00000019 Ry

     The total energy is the sum of the following terms:
     one-electron contribution =       4.61893931 Ry
     hartree contribution      =       1.11207075 Ry
     xc contribution           =      -4.79067908 Ry
     ewald contribution        =     -16.68223531 Ry

     convergence has been achieved in   5 iterations

     Forces acting on atoms (cartesian axes, Ry/au):

     atom    1 type  1   force =    -0.00000000   -0.00000000    0.00000000
     atom    2 type  1   force =     0.00000000    0.00000000   -0.00000000

     Total force =     0.000000     Total SCF correction =     0.000000


     Computing stress (Cartesian axis) and pressure

          total   stress  (Ry/bohr**3)                   (kbar)     P=        3.41
   0.00002316  -0.00000000  -0.00000000            3.41       -0.00       -0.00
  -0.00000000   0.00002316  -0.00000000           -0.00        3.41       -0.00
  -0.00000000  -0.00000000   0.00002316           -0.00       -0.00        3.41


     Writing all to output data dir ./Si2.save/
 
     init_run     :      1.66s CPU      1.74s WALL (       1 calls)
     electrons    :     14.00s CPU     14.84s WALL (       1 calls)
     forces       :      0.11s CPU      0.11s WALL (       1 calls)
     stress       :      0.94s CPU      0.96s WALL (       1 calls)

     Called by init_run:
     wfcinit      :      1.32s CPU      1.36s WALL (       1 calls)
     potinit      :      0.10s CPU      0.11s WALL (       1 calls)
     hinit0       :      0.18s CPU      0.20s WALL (       1 calls)

     Called by electrons:
     c_bands      :     11.43s CPU     12.15s WALL (       6 calls)
     sum_band     :      2.09s CPU      2.16s WALL (       6 calls)
     v_of_rho     :      0.54s CPU      0.56s WALL (       6 calls)
     mix_rho      :      0.02s CPU      0.02s WALL (       6 calls)

     Called by c_bands:
     init_us_2    :      0.78s CPU      0.83s WALL (     660 calls)
     init_us_2:cp :      0.76s CPU      0.81s WALL (     660 calls)
     cegterg      :     10.87s CPU     11.21s WALL (     264 calls)

     Called by *egterg:
     cdiaghg      :      0.28s CPU      0.30s WALL (     923 calls)
     h_psi        :     11.09s CPU     11.39s WALL (    1011 calls)
     g_psi        :      0.04s CPU      0.04s WALL (     703 calls)

     Called by h_psi:
     h_psi:calbec :      0.20s CPU      0.21s WALL (    1011 calls)
     vloc_psi     :     10.69s CPU     10.97s WALL (    1011 calls)
     add_vuspsi   :      0.12s CPU      0.13s WALL (    1011 calls)

     General routines
     calbec       :      0.21s CPU      0.24s WALL (    1231 calls)
     fft          :      0.09s CPU      0.11s WALL (      68 calls)
     ffts         :      0.01s CPU      0.01s WALL (       6 calls)
     fftw         :     10.29s CPU     10.57s WALL (    8096 calls)
 
     Parallel routines
 
     PWSCF        :     16.98s CPU     18.45s WALL

 
   This run was terminated on:  19:17:20  18Feb2022            

=------------------------------------------------------------------------------=
   JOB DONE.
=------------------------------------------------------------------------------=
