
     Program PWSCF v.7.0 starts on 18Feb2022 at 18:40:44 

     This program is part of the open-source Quantum ESPRESSO suite
     for quantum simulation of materials; please cite
         "P. Giannozzi et al., J. Phys.:Condens. Matter 21 395502 (2009);
         "P. Giannozzi et al., J. Phys.:Condens. Matter 29 465901 (2017);
         "P. Giannozzi et al., J. Chem. Phys. 152 154105 (2020);
          URL http://www.quantum-espresso.org", 
     in publications or presentations arising from this work. More details at
     http://www.quantum-espresso.org/quote

     Parallel version (MPI), running on     1 processors

     MPI processes distributed on     1 nodes
     88206 MiB available memory on the printing compute node when the environment starts
 
     Reading input from Si.scf.130.in

     Current dimensions of program PWSCF are:
     Max number of different atomic species (ntypx) = 10
     Max number of k-points (npk) =  40000
     Max angular momentum in pseudopotentials (lmaxx) =  4

     Subspace diagonalization in iterative solution of the eigenvalue problem:
     a serial algorithm will be used

 
     G-vector sticks info
     --------------------
     sticks:   dense  smooth     PW     G-vecs:    dense   smooth      PW
     Sum        1915    1915    559                55345    55345    8609
 
     Using Slab Decomposition
 


     bravais-lattice index     =            2
     lattice parameter (alat)  =      10.3330  a.u.
     unit-cell volume          =     275.8159 (a.u.)^3
     number of atoms/cell      =            2
     number of atomic types    =            1
     number of electrons       =         8.00
     number of Kohn-Sham states=            4
     kinetic-energy cutoff     =     130.0000  Ry
     charge density cutoff     =     520.0000  Ry
     scf convergence threshold =      1.0E-06
     mixing beta               =       0.7000
     number of iterations used =            8  plain     mixing
     Exchange-correlation=  SLA  PW   PBE  PBE
                           (   1   4   3   4   0   0   0)

     celldm(1)=  10.333000  celldm(2)=   0.000000  celldm(3)=   0.000000
     celldm(4)=   0.000000  celldm(5)=   0.000000  celldm(6)=   0.000000

     crystal axes: (cart. coord. in units of alat)
               a(1) = (  -0.500000   0.000000   0.500000 )  
               a(2) = (   0.000000   0.500000   0.500000 )  
               a(3) = (  -0.500000   0.500000   0.000000 )  

     reciprocal axes: (cart. coord. in units 2 pi/alat)
               b(1) = ( -1.000000 -1.000000  1.000000 )  
               b(2) = (  1.000000  1.000000  1.000000 )  
               b(3) = ( -1.000000  1.000000 -1.000000 )  


     PseudoPot. # 1 for Si read from file:
     ./Si.pbe-rrkj.UPF
     MD5 check sum: cf7ab5690cd9a85b22c4813f7e365554
     Pseudo is Norm-conserving, Zval =  4.0
     Generated by new atomic code, or converted to UPF format
     Using radial grid of  883 points,  3 beta functions with: 
                l(1) =   0
                l(2) =   0
                l(3) =   1

     atomic species   valence    mass     pseudopotential
        Si             4.00    28.08600     Si( 1.00)

     48 Sym. Ops., with inversion, found (24 have fractional translation)



   Cartesian axes

     site n.     atom                  positions (alat units)
         1           Si  tau(   1) = (   0.0000000   0.0000000   0.0000000  )
         2           Si  tau(   2) = (   0.2500000   0.2500000   0.2500000  )

     number of k points=    28
                       cart. coord. in units 2pi/alat
        k(    1) = (  -0.0833333   0.0833333   0.0833333), wk =   0.0185185
        k(    2) = (  -0.2500000   0.2500000  -0.0833333), wk =   0.0555556
        k(    3) = (  -0.4166667   0.4166667  -0.2500000), wk =   0.0555556
        k(    4) = (   0.4166667  -0.4166667   0.5833333), wk =   0.0555556
        k(    5) = (   0.2500000  -0.2500000   0.4166667), wk =   0.0555556
        k(    6) = (   0.0833333  -0.0833333   0.2500000), wk =   0.0555556
        k(    7) = (  -0.0833333   0.4166667   0.0833333), wk =   0.0555556
        k(    8) = (  -0.2500000   0.5833333  -0.0833333), wk =   0.1111111
        k(    9) = (   0.5833333  -0.2500000   0.7500000), wk =   0.1111111
        k(   10) = (   0.4166667  -0.0833333   0.5833333), wk =   0.1111111
        k(   11) = (   0.2500000   0.0833333   0.4166667), wk =   0.1111111
        k(   12) = (  -0.0833333   0.7500000   0.0833333), wk =   0.0555556
        k(   13) = (   0.7500000  -0.0833333   0.9166667), wk =   0.1111111
        k(   14) = (   0.5833333   0.0833333   0.7500000), wk =   0.1111111
        k(   15) = (   0.4166667   0.2500000   0.5833333), wk =   0.1111111
        k(   16) = (  -0.0833333  -0.9166667   0.0833333), wk =   0.0555556
        k(   17) = (  -0.2500000  -0.7500000  -0.0833333), wk =   0.1111111
        k(   18) = (  -0.0833333  -0.5833333   0.0833333), wk =   0.0555556
        k(   19) = (  -0.2500000   0.2500000   0.2500000), wk =   0.0185185
        k(   20) = (  -0.4166667   0.4166667   0.0833333), wk =   0.0555556
        k(   21) = (   0.4166667  -0.4166667   0.9166667), wk =   0.0555556
        k(   22) = (   0.2500000  -0.2500000   0.7500000), wk =   0.0555556
        k(   23) = (  -0.2500000   0.5833333   0.2500000), wk =   0.0555556
        k(   24) = (   0.5833333  -0.2500000   1.0833333), wk =   0.1111111
        k(   25) = (   0.4166667  -0.0833333   0.9166667), wk =   0.1111111
        k(   26) = (  -0.2500000  -1.0833333   0.2500000), wk =   0.0555556
        k(   27) = (  -0.4166667   0.4166667   0.4166667), wk =   0.0185185
        k(   28) = (   0.4166667  -0.4166667   1.2500000), wk =   0.0555556

     Dense  grid:    55345 G-vectors     FFT dimensions: (  60,  60,  60)

     Estimated max dynamical RAM per process >      53.12 MB

     Initial potential from superposition of free atoms

     starting charge       7.9989, renormalised to       8.0000
     Starting wfcs are    8 randomized atomic wfcs

     total cpu time spent up to now is        4.1 secs

     Self-consistent Calculation

     iteration #  1     ecut=   130.00 Ry     beta= 0.70
     Davidson diagonalization with overlap
     ethr =  1.00E-02,  avg # of iterations =  2.0

     Threshold (ethr) on eigenvalues was too large:
     Diagonalizing with lowered threshold

     Davidson diagonalization with overlap
     ethr =  5.70E-04,  avg # of iterations =  2.0

     total cpu time spent up to now is       13.7 secs

     total energy              =     -15.73955103 Ry
     estimated scf accuracy    <       0.05352804 Ry

     iteration #  2     ecut=   130.00 Ry     beta= 0.70
     Davidson diagonalization with overlap
     ethr =  6.69E-04,  avg # of iterations =  1.0

     total cpu time spent up to now is       17.6 secs

     total energy              =     -15.74125206 Ry
     estimated scf accuracy    <       0.00310607 Ry

     iteration #  3     ecut=   130.00 Ry     beta= 0.70
     Davidson diagonalization with overlap
     ethr =  3.88E-05,  avg # of iterations =  2.1

     total cpu time spent up to now is       22.7 secs

     total energy              =     -15.74183438 Ry
     estimated scf accuracy    <       0.00008745 Ry

     iteration #  4     ecut=   130.00 Ry     beta= 0.70
     Davidson diagonalization with overlap
     ethr =  1.09E-06,  avg # of iterations =  4.8

     total cpu time spent up to now is       29.5 secs

     total energy              =     -15.74190685 Ry
     estimated scf accuracy    <       0.00000278 Ry

     iteration #  5     ecut=   130.00 Ry     beta= 0.70
     Davidson diagonalization with overlap
     ethr =  3.48E-08,  avg # of iterations =  4.6

     total cpu time spent up to now is       36.3 secs

     End of self-consistent calculation

          k =-0.0833 0.0833 0.0833 (  6894 PWs)   bands (ev):

    -5.6575   5.1709   5.8761   5.8761

          k =-0.2500 0.2500-0.0833 (  6901 PWs)   bands (ev):

    -5.1879   3.1203   4.6653   5.6676

          k =-0.4167 0.4167-0.2500 (  6900 PWs)   bands (ev):

    -4.1124   0.4006   4.2062   5.0409

          k = 0.4167-0.4167 0.5833 (  6909 PWs)   bands (ev):

    -3.4259  -0.7250   4.2702   4.6672

          k = 0.2500-0.2500 0.4167 (  6896 PWs)   bands (ev):

    -4.5177   1.2341   4.7280   4.7615

          k = 0.0833-0.0833 0.2500 (  6892 PWs)   bands (ev):

    -5.4204   4.1164   5.2430   5.4251

          k =-0.0833 0.4167 0.0833 (  6914 PWs)   bands (ev):

    -4.9503   2.9316   4.5108   4.5250

          k =-0.2500 0.5833-0.0833 (  6904 PWs)   bands (ev):

    -4.0537   1.1188   3.2166   4.1447

          k = 0.5833-0.2500 0.7500 (  6894 PWs)   bands (ev):

    -2.9558  -0.6025   2.6237   3.9215

          k = 0.4167-0.0833 0.5833 (  6906 PWs)   bands (ev):

    -3.6655   0.4373   2.5847   4.3991

          k = 0.2500 0.0833 0.4167 (  6902 PWs)   bands (ev):

    -4.7283   2.1091   3.9020   5.0545

          k =-0.0833 0.7500 0.0833 (  6917 PWs)   bands (ev):

    -3.3528   0.3015   3.1799   3.5113

          k = 0.7500-0.0833 0.9167 (  6904 PWs)   bands (ev):

    -2.1758  -1.0184   2.3550   3.1142

          k = 0.5833 0.0833 0.7500 (  6896 PWs)   bands (ev):

    -2.5422  -0.6857   1.8801   3.6506

          k = 0.4167 0.2500 0.5833 (  6905 PWs)   bands (ev):

    -3.5557  -0.2332   3.5077   4.4940

          k =-0.0833-0.9167 0.0833 (  6916 PWs)   bands (ev):

    -2.2655  -1.0260   2.9145   3.2989

          k =-0.2500-0.7500-0.0833 (  6906 PWs)   bands (ev):

    -3.1871   0.0818   2.6705   3.4491

          k =-0.0833-0.5833 0.0833 (  6915 PWs)   bands (ev):

    -4.2560   1.6475   3.7158   3.9276

          k =-0.2500 0.2500 0.2500 (  6889 PWs)   bands (ev):

    -4.9618   2.1575   5.2722   5.2722

          k =-0.4167 0.4167 0.0833 (  6908 PWs)   bands (ev):

    -4.2930   1.2342   3.1818   5.1045

          k = 0.4167-0.4167 0.9167 (  6913 PWs)   bands (ev):

    -3.1327  -0.1871   2.0938   4.3323

          k = 0.2500-0.2500 0.7500 (  6895 PWs)   bands (ev):

    -3.0810  -0.2653   2.5637   3.8587

          k =-0.2500 0.5833 0.2500 (  6908 PWs)   bands (ev):

    -3.8756   0.4396   3.6361   4.2261

          k = 0.5833-0.2500 1.0833 (  6896 PWs)   bands (ev):

    -2.8893  -0.3004   2.1923   3.4489

          k = 0.4167-0.0833 0.9167 (  6892 PWs)   bands (ev):

    -2.0716  -1.0262   2.0320   2.7938

          k =-0.2500-1.0833 0.2500 (  6901 PWs)   bands (ev):

    -2.2790  -0.9321   1.9078   3.6671

          k =-0.4167 0.4167 0.4167 (  6910 PWs)   bands (ev):

    -3.7887  -0.3308   4.8883   4.8883

          k = 0.4167-0.4167 1.2500 (  6910 PWs)   bands (ev):

    -3.1938  -0.6299   3.0899   4.4567

     highest occupied level (ev):     5.8761

!    total energy              =     -15.74190939 Ry
     estimated scf accuracy    <       0.00000016 Ry

     The total energy is the sum of the following terms:
     one-electron contribution =       4.61894205 Ry
     hartree contribution      =       1.11206667 Ry
     xc contribution           =      -4.79068280 Ry
     ewald contribution        =     -16.68223531 Ry

     convergence has been achieved in   5 iterations

     Forces acting on atoms (cartesian axes, Ry/au):

     atom    1 type  1   force =    -0.00000000    0.00000000   -0.00000000
     atom    2 type  1   force =     0.00000000   -0.00000000    0.00000000

     Total force =     0.000000     Total SCF correction =     0.000000


     Computing stress (Cartesian axis) and pressure

          total   stress  (Ry/bohr**3)                   (kbar)     P=        3.39
   0.00002302   0.00000000  -0.00000000            3.39        0.00       -0.00
   0.00000000   0.00002302   0.00000000            0.00        3.39        0.00
  -0.00000000   0.00000000   0.00002302           -0.00        0.00        3.39


     Writing all to output data dir ./Si2.save/
 
     init_run     :      3.69s CPU      3.82s WALL (       1 calls)
     electrons    :     31.54s CPU     32.25s WALL (       1 calls)
     forces       :      0.22s CPU      0.23s WALL (       1 calls)
     stress       :      2.14s CPU      2.16s WALL (       1 calls)

     Called by init_run:
     wfcinit      :      2.93s CPU      2.97s WALL (       1 calls)
     potinit      :      0.32s CPU      0.37s WALL (       1 calls)
     hinit0       :      0.25s CPU      0.27s WALL (       1 calls)

     Called by electrons:
     c_bands      :     25.22s CPU     25.79s WALL (       6 calls)
     sum_band     :      4.70s CPU      4.75s WALL (       6 calls)
     v_of_rho     :      1.85s CPU      1.93s WALL (       6 calls)
     mix_rho      :      0.06s CPU      0.07s WALL (       6 calls)

     Called by c_bands:
     init_us_2    :      1.60s CPU      1.62s WALL (     420 calls)
     init_us_2:cp :      1.59s CPU      1.62s WALL (     420 calls)
     cegterg      :     24.18s CPU     24.50s WALL (     168 calls)

     Called by *egterg:
     cdiaghg      :      0.19s CPU      0.20s WALL (     600 calls)
     h_psi        :     25.35s CPU     25.62s WALL (     656 calls)
     g_psi        :      0.08s CPU      0.09s WALL (     460 calls)

     Called by h_psi:
     h_psi:calbec :      0.26s CPU      0.27s WALL (     656 calls)
     vloc_psi     :     24.68s CPU     24.91s WALL (     656 calls)
     add_vuspsi   :      0.30s CPU      0.33s WALL (     656 calls)

     General routines
     calbec       :      0.30s CPU      0.32s WALL (     796 calls)
     fft          :      0.32s CPU      0.33s WALL (      68 calls)
     ffts         :      0.03s CPU      0.03s WALL (       6 calls)
     fftw         :     23.95s CPU     24.10s WALL (    5252 calls)
 
     Parallel routines
 
     PWSCF        :     37.84s CPU     39.22s WALL

 
   This run was terminated on:  18:41:23  18Feb2022            

=------------------------------------------------------------------------------=
   JOB DONE.
=------------------------------------------------------------------------------=
