
     Program PWSCF v.7.0 starts on 21Feb2022 at 13:29:28 

     This program is part of the open-source Quantum ESPRESSO suite
     for quantum simulation of materials; please cite
         "P. Giannozzi et al., J. Phys.:Condens. Matter 21 395502 (2009);
         "P. Giannozzi et al., J. Phys.:Condens. Matter 29 465901 (2017);
         "P. Giannozzi et al., J. Chem. Phys. 152 154105 (2020);
          URL http://www.quantum-espresso.org", 
     in publications or presentations arising from this work. More details at
     http://www.quantum-espresso.org/quote

     Parallel version (MPI), running on     1 processors

     MPI processes distributed on     1 nodes
     86402 MiB available memory on the printing compute node when the environment starts
 
     Reading input from Si64.scf.kpoint.2.in

     Current dimensions of program PWSCF are:
     Max number of different atomic species (ntypx) = 10
     Max number of k-points (npk) =  40000
     Max angular momentum in pseudopotentials (lmaxx) =  4
     Found identity + ( -0.5000  0.0000  0.0000) symmetry
     This is a supercell, fractional translations are disabled
     Message from routine setup:
     using ibrav=0 with symmetry is DISCOURAGED, use correct ibrav instead

     Subspace diagonalization in iterative solution of the eigenvalue problem:
     a serial algorithm will be used

 
     G-vector sticks info
     --------------------
     sticks:   dense  smooth     PW     G-vecs:    dense   smooth      PW
     Sum        4061    4061   1085               195797   195797   26193
 
     Using Slab Decomposition
 


     bravais-lattice index     =            0
     lattice parameter (alat)  =      20.6660  a.u.
     unit-cell volume          =    8826.0984 (a.u.)^3
     number of atoms/cell      =           64
     number of atomic types    =            1
     number of electrons       =       256.00
     number of Kohn-Sham states=          128
     kinetic-energy cutoff     =      30.0000  Ry
     charge density cutoff     =     120.0000  Ry
     scf convergence threshold =      1.0E-06
     mixing beta               =       0.7000
     number of iterations used =            8  plain     mixing
     Exchange-correlation=  SLA  PW   PBE  PBE
                           (   1   4   3   4   0   0   0)

     celldm(1)=  20.665992  celldm(2)=   0.000000  celldm(3)=   0.000000
     celldm(4)=   0.000000  celldm(5)=   0.000000  celldm(6)=   0.000000

     crystal axes: (cart. coord. in units of alat)
               a(1) = (   1.000000   0.000000   0.000000 )  
               a(2) = (   0.000000   1.000000   0.000000 )  
               a(3) = (   0.000000   0.000000   1.000000 )  

     reciprocal axes: (cart. coord. in units 2 pi/alat)
               b(1) = (  1.000000  0.000000  0.000000 )  
               b(2) = (  0.000000  1.000000  0.000000 )  
               b(3) = (  0.000000  0.000000  1.000000 )  


     PseudoPot. # 1 for Si read from file:
     ../Si.pbe-rrkj.UPF
     MD5 check sum: cf7ab5690cd9a85b22c4813f7e365554
     Pseudo is Norm-conserving, Zval =  4.0
     Generated by new atomic code, or converted to UPF format
     Using radial grid of  883 points,  3 beta functions with: 
                l(1) =   0
                l(2) =   0
                l(3) =   1

     atomic species   valence    mass     pseudopotential
        Si             4.00    28.08600     Si( 1.00)

      6 Sym. Ops. (no inversion) found



   Cartesian axes

     site n.     atom                  positions (alat units)
         1           Si  tau(   1) = (   0.3669965   0.3669965   0.0000000  )
         2           Si  tau(   2) = (   0.8669965   0.3669965   0.0000000  )
         3           Si  tau(   3) = (   0.3669965   0.8669965   0.0000000  )
         4           Si  tau(   4) = (   0.8669965   0.8669965   0.0000000  )
         5           Si  tau(   5) = (   0.3669965   0.3669965   0.5000000  )
         6           Si  tau(   6) = (   0.8669965   0.3669965   0.5000000  )
         7           Si  tau(   7) = (   0.3669965   0.8669965   0.5000000  )
         8           Si  tau(   8) = (   0.8669965   0.8669965   0.5000000  )
         9           Si  tau(   9) = (   0.0000000   0.0000000   0.0000000  )
        10           Si  tau(  10) = (   0.5000000   0.0000000   0.0000000  )
        11           Si  tau(  11) = (   0.0000000   0.5000000   0.0000000  )
        12           Si  tau(  12) = (   0.5000000   0.5000000   0.0000000  )
        13           Si  tau(  13) = (   0.0000000   0.0000000   0.5000000  )
        14           Si  tau(  14) = (   0.5000000   0.0000000   0.5000000  )
        15           Si  tau(  15) = (   0.0000000   0.5000000   0.5000000  )
        16           Si  tau(  16) = (   0.5000000   0.5000000   0.5000000  )
        17           Si  tau(  17) = (   0.3669965   0.0000000   0.3669965  )
        18           Si  tau(  18) = (   0.8669965   0.0000000   0.3669965  )
        19           Si  tau(  19) = (   0.3669965   0.5000000   0.3669965  )
        20           Si  tau(  20) = (   0.8669965   0.5000000   0.3669965  )
        21           Si  tau(  21) = (   0.3669965   0.0000000   0.8669965  )
        22           Si  tau(  22) = (   0.8669965   0.0000000   0.8669965  )
        23           Si  tau(  23) = (   0.3669965   0.5000000   0.8669965  )
        24           Si  tau(  24) = (   0.8669965   0.5000000   0.8669965  )
        25           Si  tau(  25) = (   0.0000000   0.3669965   0.3669965  )
        26           Si  tau(  26) = (   0.5000000   0.3669965   0.3669965  )
        27           Si  tau(  27) = (   0.0000000   0.8669965   0.3669965  )
        28           Si  tau(  28) = (   0.5000000   0.8669965   0.3669965  )
        29           Si  tau(  29) = (   0.0000000   0.3669965   0.8669965  )
        30           Si  tau(  30) = (   0.5000000   0.3669965   0.8669965  )
        31           Si  tau(  31) = (   0.0000000   0.8669965   0.8669965  )
        32           Si  tau(  32) = (   0.5000000   0.8669965   0.8669965  )
        33           Si  tau(  33) = (   0.0504947   0.0504947   0.6834982  )
        34           Si  tau(  34) = (   0.5504947   0.0504947   0.6834982  )
        35           Si  tau(  35) = (   0.0504947   0.5504947   0.6834982  )
        36           Si  tau(  36) = (   0.5504947   0.5504947   0.6834982  )
        37           Si  tau(  37) = (   0.0504947   0.0504947   0.1834982  )
        38           Si  tau(  38) = (   0.5504947   0.0504947   0.1834982  )
        39           Si  tau(  39) = (   0.0504947   0.5504947   0.1834982  )
        40           Si  tau(  40) = (   0.5504947   0.5504947   0.1834982  )
        41           Si  tau(  41) = (   0.6834982   0.6834982   0.6834982  )
        42           Si  tau(  42) = (   0.1834982   0.6834982   0.6834982  )
        43           Si  tau(  43) = (   0.6834982   0.1834982   0.6834982  )
        44           Si  tau(  44) = (   0.1834982   0.1834982   0.6834982  )
        45           Si  tau(  45) = (   0.6834982   0.6834982   0.1834982  )
        46           Si  tau(  46) = (   0.1834982   0.6834982   0.1834982  )
        47           Si  tau(  47) = (   0.6834982   0.1834982   0.1834982  )
        48           Si  tau(  48) = (   0.1834982   0.1834982   0.1834982  )
        49           Si  tau(  49) = (   0.0504947   0.6834982   0.0504947  )
        50           Si  tau(  50) = (   0.5504947   0.6834982   0.0504947  )
        51           Si  tau(  51) = (   0.0504947   0.1834982   0.0504947  )
        52           Si  tau(  52) = (   0.5504947   0.1834982   0.0504947  )
        53           Si  tau(  53) = (   0.0504947   0.6834982   0.5504947  )
        54           Si  tau(  54) = (   0.5504947   0.6834982   0.5504947  )
        55           Si  tau(  55) = (   0.0504947   0.1834982   0.5504947  )
        56           Si  tau(  56) = (   0.5504947   0.1834982   0.5504947  )
        57           Si  tau(  57) = (   0.6834982   0.0504947   0.0504947  )
        58           Si  tau(  58) = (   0.1834982   0.0504947   0.0504947  )
        59           Si  tau(  59) = (   0.6834982   0.5504947   0.0504947  )
        60           Si  tau(  60) = (   0.1834982   0.5504947   0.0504947  )
        61           Si  tau(  61) = (   0.6834982   0.0504947   0.5504947  )
        62           Si  tau(  62) = (   0.1834982   0.0504947   0.5504947  )
        63           Si  tau(  63) = (   0.6834982   0.5504947   0.5504947  )
        64           Si  tau(  64) = (   0.1834982   0.5504947   0.5504947  )

     number of k points=     2
                       cart. coord. in units 2pi/alat
        k(    1) = (   0.2500000   0.2500000   0.2500000), wk =   0.5000000
        k(    2) = (   0.2500000  -0.2500000   0.2500000), wk =   1.5000000

     Dense  grid:   195797 G-vectors     FFT dimensions: (  75,  75,  75)

     Estimated max dynamical RAM per process >     568.58 MB

     Initial potential from superposition of free atoms

     starting charge     255.9646, renormalised to     256.0000
     Starting wfcs are  256 randomized atomic wfcs

     total cpu time spent up to now is       21.6 secs

     Self-consistent Calculation

     iteration #  1     ecut=    30.00 Ry     beta= 0.70
     Davidson diagonalization with overlap
     ethr =  1.00E-02,  avg # of iterations =  3.0

     total cpu time spent up to now is       57.0 secs

     total energy              =    -491.27434381 Ry
     estimated scf accuracy    <       6.72179204 Ry

     iteration #  2     ecut=    30.00 Ry     beta= 0.70
     Davidson diagonalization with overlap
     ethr =  2.63E-03,  avg # of iterations =  3.0

     total cpu time spent up to now is       91.3 secs

     total energy              =    -493.10558025 Ry
     estimated scf accuracy    <       2.22741690 Ry

     iteration #  3     ecut=    30.00 Ry     beta= 0.70
     Davidson diagonalization with overlap
     ethr =  8.70E-04,  avg # of iterations =  8.0

     total cpu time spent up to now is      126.3 secs

     total energy              =    -493.68842368 Ry
     estimated scf accuracy    <       0.08518770 Ry

     iteration #  4     ecut=    30.00 Ry     beta= 0.70
     Davidson diagonalization with overlap
     ethr =  3.33E-05,  avg # of iterations = 14.0

     total cpu time spent up to now is      175.9 secs

     total energy              =    -493.74363434 Ry
     estimated scf accuracy    <       0.06558898 Ry

     iteration #  5     ecut=    30.00 Ry     beta= 0.70
     Davidson diagonalization with overlap
     ethr =  2.56E-05,  avg # of iterations =  9.5

     total cpu time spent up to now is      217.1 secs

     total energy              =    -493.73170223 Ry
     estimated scf accuracy    <       0.36419521 Ry

     iteration #  6     ecut=    30.00 Ry     beta= 0.70
     Davidson diagonalization with overlap
     ethr =  2.56E-05,  avg # of iterations = 13.5

     total cpu time spent up to now is      256.4 secs

     total energy              =    -493.75581731 Ry
     estimated scf accuracy    <       0.04838731 Ry

     iteration #  7     ecut=    30.00 Ry     beta= 0.70
     Davidson diagonalization with overlap
     ethr =  1.89E-05,  avg # of iterations =  8.5

     total cpu time spent up to now is      289.4 secs

     total energy              =    -493.76146629 Ry
     estimated scf accuracy    <       0.02160057 Ry

     iteration #  8     ecut=    30.00 Ry     beta= 0.70
     Davidson diagonalization with overlap
     ethr =  8.44E-06,  avg # of iterations =  6.0

     total cpu time spent up to now is      317.1 secs

     total energy              =    -493.76253343 Ry
     estimated scf accuracy    <       0.00377324 Ry

     iteration #  9     ecut=    30.00 Ry     beta= 0.70
     Davidson diagonalization with overlap
     ethr =  1.47E-06,  avg # of iterations =  8.0

     total cpu time spent up to now is      353.1 secs

     total energy              =    -493.76372821 Ry
     estimated scf accuracy    <       0.00114140 Ry

     iteration # 10     ecut=    30.00 Ry     beta= 0.70
     Davidson diagonalization with overlap
     ethr =  4.46E-07,  avg # of iterations = 12.5

     total cpu time spent up to now is      389.7 secs

     total energy              =    -493.76371750 Ry
     estimated scf accuracy    <       0.00149390 Ry

     iteration # 11     ecut=    30.00 Ry     beta= 0.70
     Davidson diagonalization with overlap
     ethr =  4.46E-07,  avg # of iterations =  2.5

     total cpu time spent up to now is      413.2 secs

     total energy              =    -493.76368941 Ry
     estimated scf accuracy    <       0.00052019 Ry

     iteration # 12     ecut=    30.00 Ry     beta= 0.70
     Davidson diagonalization with overlap
     ethr =  2.03E-07,  avg # of iterations = 12.0

     total cpu time spent up to now is      449.2 secs

     total energy              =    -493.76380135 Ry
     estimated scf accuracy    <       0.00013886 Ry

     iteration # 13     ecut=    30.00 Ry     beta= 0.70
     Davidson diagonalization with overlap
     ethr =  5.42E-08,  avg # of iterations =  6.5

     total cpu time spent up to now is      474.4 secs

     total energy              =    -493.76378717 Ry
     estimated scf accuracy    <       0.00011370 Ry

     iteration # 14     ecut=    30.00 Ry     beta= 0.70
     Davidson diagonalization with overlap
     ethr =  4.44E-08,  avg # of iterations = 12.5

     total cpu time spent up to now is      508.9 secs

     total energy              =    -493.76380643 Ry
     estimated scf accuracy    <       0.00003416 Ry

     iteration # 15     ecut=    30.00 Ry     beta= 0.70
     Davidson diagonalization with overlap
     ethr =  1.33E-08,  avg # of iterations = 13.0

     total cpu time spent up to now is      538.2 secs

     total energy              =    -493.76380956 Ry
     estimated scf accuracy    <       0.00000505 Ry

     iteration # 16     ecut=    30.00 Ry     beta= 0.70
     Davidson diagonalization with overlap
     ethr =  1.97E-09,  avg # of iterations =  9.5

     total cpu time spent up to now is      574.6 secs

     total energy              =    -493.76381126 Ry
     estimated scf accuracy    <       0.00000302 Ry

     iteration # 17     ecut=    30.00 Ry     beta= 0.70
     Davidson diagonalization with overlap
     ethr =  1.18E-09,  avg # of iterations =  4.5

     total cpu time spent up to now is      598.9 secs

     total energy              =    -493.76381087 Ry
     estimated scf accuracy    <       0.00000292 Ry

     iteration # 18     ecut=    30.00 Ry     beta= 0.70
     Davidson diagonalization with overlap
     ethr =  1.14E-09,  avg # of iterations =  5.0

     total cpu time spent up to now is      623.3 secs

     total energy              =    -493.76381092 Ry
     estimated scf accuracy    <       0.00000109 Ry

     iteration # 19     ecut=    30.00 Ry     beta= 0.70
     Davidson diagonalization with overlap
     ethr =  4.27E-10,  avg # of iterations =  7.5

     total cpu time spent up to now is      654.9 secs

     End of self-consistent calculation

          k = 0.2500 0.2500 0.2500 ( 24468 PWs)   bands (ev):

    -9.4866  -9.3847  -9.3847  -9.3846  -9.2929  -9.2929  -9.2928  -9.2119
    -8.2480  -8.2136  -8.2136  -8.2136  -8.1537  -8.1537  -8.1537  -8.0603
    -3.6594  -3.5413  -3.5413  -3.5412  -3.4939  -3.4939  -3.4938  -3.3202
    -2.8875  -2.8875  -2.8875  -2.6917  -2.6917  -2.3924  -2.3924  -2.3924
    -2.0926  -2.0926  -1.9788  -1.9788  -1.9788  -1.9324  -1.9324  -1.9324
    -0.9571  -0.9570  -0.9570  -0.8949  -0.8948  -0.8948  -0.6459  -0.6459
    -0.6459  -0.5623  -0.5623  -0.4641  -0.4641  -0.2915   0.0178   0.0178
     0.0178   0.1053   0.1053   0.1053   0.1806   0.2524   0.2525   0.2525
     1.2042   1.6940   1.9335   1.9335   1.9335   2.0215   2.0215   2.0215
     2.1751   2.1751   2.1751   2.4036   2.4036   2.4036   2.5108   2.5108
     2.8076   2.8076   2.8076   2.8326   2.8327   2.8327   3.1053   3.1551
     3.1551   3.1551   3.2087   3.2088   3.2088   3.2226   3.2226   3.3819
     3.3819   3.3819   3.7614   3.7794   3.7794   3.7794   3.9175   3.9175
     3.9175   3.9185   3.9185   4.0352   4.0352   4.0353   4.4265   4.4265
     4.9411   4.9411   5.3049   5.3049   5.3049   5.3624   5.3624   5.3624
     5.4212   5.4212   5.4862   5.4862   5.4862   5.6574   5.6575   5.6575

          k = 0.2500-0.2500 0.2500 ( 24468 PWs)   bands (ev):

    -9.4885  -9.3842  -9.3841  -9.3823  -9.2936  -9.2935  -9.2912  -9.2140
    -8.2436  -8.2175  -8.2119  -8.2119  -8.1602  -8.1552  -8.1552  -8.0543
    -3.6854  -3.5937  -3.5936  -3.5208  -3.4411  -3.4410  -3.4219  -3.3792
    -2.8870  -2.8050  -2.8050  -2.6923  -2.6597  -2.5808  -2.5631  -2.5630
    -2.0945  -2.0156  -2.0025  -2.0024  -1.9299  -1.7021  -1.7021  -1.6856
    -1.2577  -1.2230  -1.2230  -0.9440  -0.9439  -0.9166  -0.7379  -0.6491
    -0.5599  -0.5209  -0.4663  -0.2777  -0.2777  -0.0418  -0.0418   0.0302
     0.0615   0.0615   0.1102   0.1394   0.1559   0.1559   0.1908   0.2924
     1.0898   1.7209   1.8352   1.8352   1.8662   1.8895   2.0117   2.0117
     2.1758   2.3184   2.3184   2.4799   2.4974   2.5094   2.5334   2.5335
     2.6968   2.6969   2.8486   2.8588   2.8588   2.9090   2.9434   3.0268
     3.0504   3.0504   3.2279   3.2842   3.2842   3.3043   3.3079   3.3618
     3.4519   3.4519   3.5445   3.6487   3.6487   3.9297   3.9333   3.9553
     4.0207   4.0208   4.1278   4.1361   4.1475   4.1475   4.1958   4.3008
     4.9053   4.9053   4.9879   5.2850   5.2934   5.3351   5.3351   5.3380
     5.3380   5.4302   5.4807   5.4992   5.5227   5.5378   5.5378   5.5399

     highest occupied level (ev):     5.6575

!    total energy              =    -493.76381081 Ry
     estimated scf accuracy    <       0.00000032 Ry

     The total energy is the sum of the following terms:
     one-electron contribution =     -16.59192634 Ry
     hartree contribution      =     113.47629662 Ry
     xc contribution           =    -159.75039783 Ry
     ewald contribution        =    -430.89778326 Ry

     convergence has been achieved in  19 iterations

     Forces acting on atoms (cartesian axes, Ry/au):

     atom    1 type  1   force =    -0.23148521   -0.23148521    0.26830703
     atom    2 type  1   force =    -0.23148844   -0.23148116    0.26831053
     atom    3 type  1   force =    -0.23148116   -0.23148844    0.26831053
     atom    4 type  1   force =    -0.23148630   -0.23148630    0.26829279
     atom    5 type  1   force =    -0.23150908   -0.23150908    0.26832456
     atom    6 type  1   force =    -0.23149536   -0.23149224    0.26832156
     atom    7 type  1   force =    -0.23149224   -0.23149536    0.26832156
     atom    8 type  1   force =    -0.23148427   -0.23148427    0.26831341
     atom    9 type  1   force =     0.08824846    0.08824846    0.08824846
     atom   10 type  1   force =     0.08829021    0.08828577    0.08828577
     atom   11 type  1   force =     0.08828577    0.08829021    0.08828577
     atom   12 type  1   force =     0.08829073    0.08829073    0.08829569
     atom   13 type  1   force =     0.08828577    0.08828577    0.08829021
     atom   14 type  1   force =     0.08829073    0.08829569    0.08829073
     atom   15 type  1   force =     0.08829569    0.08829073    0.08829073
     atom   16 type  1   force =     0.08829670    0.08829670    0.08829670
     atom   17 type  1   force =    -0.23148521    0.26830703   -0.23148521
     atom   18 type  1   force =    -0.23148844    0.26831053   -0.23148116
     atom   19 type  1   force =    -0.23150908    0.26832456   -0.23150908
     atom   20 type  1   force =    -0.23149536    0.26832156   -0.23149224
     atom   21 type  1   force =    -0.23148116    0.26831053   -0.23148844
     atom   22 type  1   force =    -0.23148630    0.26829279   -0.23148630
     atom   23 type  1   force =    -0.23149224    0.26832156   -0.23149536
     atom   24 type  1   force =    -0.23148427    0.26831341   -0.23148427
     atom   25 type  1   force =     0.26830703   -0.23148521   -0.23148521
     atom   26 type  1   force =     0.26832456   -0.23150908   -0.23150908
     atom   27 type  1   force =     0.26831053   -0.23148844   -0.23148116
     atom   28 type  1   force =     0.26832156   -0.23149536   -0.23149224
     atom   29 type  1   force =     0.26831053   -0.23148116   -0.23148844
     atom   30 type  1   force =     0.26832156   -0.23149224   -0.23149536
     atom   31 type  1   force =     0.26829279   -0.23148630   -0.23148630
     atom   32 type  1   force =     0.26831341   -0.23148427   -0.23148427
     atom   33 type  1   force =    -0.22034126   -0.22034126    0.33271733
     atom   34 type  1   force =    -0.22034079   -0.22034428    0.33272443
     atom   35 type  1   force =    -0.22034428   -0.22034079    0.33272443
     atom   36 type  1   force =    -0.22035591   -0.22035591    0.33275369
     atom   37 type  1   force =    -0.22037319   -0.22037319    0.33275647
     atom   38 type  1   force =    -0.22034004   -0.22034427    0.33271787
     atom   39 type  1   force =    -0.22034427   -0.22034004    0.33271787
     atom   40 type  1   force =    -0.22033727   -0.22033727    0.33272345
     atom   41 type  1   force =     0.21434185    0.21434185    0.21434185
     atom   42 type  1   force =     0.21434957    0.21433928    0.21433928
     atom   43 type  1   force =     0.21433928    0.21434957    0.21433928
     atom   44 type  1   force =     0.21434461    0.21434461    0.21434376
     atom   45 type  1   force =     0.21433928    0.21433928    0.21434957
     atom   46 type  1   force =     0.21434461    0.21434376    0.21434461
     atom   47 type  1   force =     0.21434376    0.21434461    0.21434461
     atom   48 type  1   force =     0.21437367    0.21437367    0.21437367
     atom   49 type  1   force =    -0.22034126    0.33271733   -0.22034126
     atom   50 type  1   force =    -0.22034079    0.33272443   -0.22034428
     atom   51 type  1   force =    -0.22037319    0.33275647   -0.22037319
     atom   52 type  1   force =    -0.22034004    0.33271787   -0.22034427
     atom   53 type  1   force =    -0.22034428    0.33272443   -0.22034079
     atom   54 type  1   force =    -0.22035591    0.33275369   -0.22035591
     atom   55 type  1   force =    -0.22034427    0.33271787   -0.22034004
     atom   56 type  1   force =    -0.22033727    0.33272345   -0.22033727
     atom   57 type  1   force =     0.33271733   -0.22034126   -0.22034126
     atom   58 type  1   force =     0.33275647   -0.22037319   -0.22037319
     atom   59 type  1   force =     0.33272443   -0.22034079   -0.22034428
     atom   60 type  1   force =     0.33271787   -0.22034004   -0.22034427
     atom   61 type  1   force =     0.33272443   -0.22034428   -0.22034079
     atom   62 type  1   force =     0.33271787   -0.22034427   -0.22034004
     atom   63 type  1   force =     0.33275369   -0.22035591   -0.22035591
     atom   64 type  1   force =     0.33272345   -0.22033727   -0.22033727

     Total force =     3.252276     Total SCF correction =     0.000985


     Computing stress (Cartesian axis) and pressure

          total   stress  (Ry/bohr**3)                   (kbar)     P=      357.60
   0.00243089   0.00008202   0.00008202          357.60       12.07       12.07
   0.00008202   0.00243089   0.00008202           12.07      357.60       12.07
   0.00008202   0.00008202   0.00243089           12.07       12.07      357.60


     Writing all to output data dir ./Si2.save/
 
     init_run     :     19.74s CPU     20.42s WALL (       1 calls)
     electrons    :    629.23s CPU    633.39s WALL (       1 calls)
     forces       :      4.95s CPU      4.98s WALL (       1 calls)
     stress       :     28.35s CPU     28.53s WALL (       1 calls)

     Called by init_run:
     wfcinit      :     18.20s CPU     18.50s WALL (       1 calls)
     potinit      :      0.67s CPU      0.79s WALL (       1 calls)
     hinit0       :      0.44s CPU      0.54s WALL (       1 calls)

     Called by electrons:
     c_bands      :    552.54s CPU    555.89s WALL (      19 calls)
     sum_band     :     63.30s CPU     63.66s WALL (      19 calls)
     v_of_rho     :     12.45s CPU     12.70s WALL (      20 calls)
     mix_rho      :      1.43s CPU      1.52s WALL (      19 calls)

     Called by c_bands:
     init_us_2    :      5.84s CPU      5.88s WALL (      82 calls)
     init_us_2:cp :      5.83s CPU      5.87s WALL (      82 calls)
     cegterg      :    541.58s CPU    544.90s WALL (      38 calls)

     Called by *egterg:
     cdiaghg      :     25.72s CPU     25.86s WALL (     356 calls)
     h_psi        :    416.53s CPU    419.03s WALL (     358 calls)
     g_psi        :      1.86s CPU      1.87s WALL (     318 calls)

     Called by h_psi:
     h_psi:calbec :     34.66s CPU     34.74s WALL (     358 calls)
     vloc_psi     :    335.27s CPU    336.97s WALL (     358 calls)
     add_vuspsi   :     45.27s CPU     45.31s WALL (     358 calls)

     General routines
     calbec       :     37.19s CPU     37.27s WALL (     368 calls)
     fft          :      2.05s CPU      2.10s WALL (     207 calls)
     ffts         :      0.19s CPU      0.19s WALL (      19 calls)
     fftw         :    333.33s CPU    334.31s WALL (   33874 calls)
 
     Parallel routines
 
     PWSCF        :  11m22.60s CPU  11m29.89s WALL

 
   This run was terminated on:  13:40:57  21Feb2022            

=------------------------------------------------------------------------------=
   JOB DONE.
=------------------------------------------------------------------------------=
