
     Program PWSCF v.7.0 starts on 21Feb2022 at 15:44:41 

     This program is part of the open-source Quantum ESPRESSO suite
     for quantum simulation of materials; please cite
         "P. Giannozzi et al., J. Phys.:Condens. Matter 21 395502 (2009);
         "P. Giannozzi et al., J. Phys.:Condens. Matter 29 465901 (2017);
         "P. Giannozzi et al., J. Chem. Phys. 152 154105 (2020);
          URL http://www.quantum-espresso.org", 
     in publications or presentations arising from this work. More details at
     http://www.quantum-espresso.org/quote

     Parallel version (MPI), running on     1 processors

     MPI processes distributed on     1 nodes
     88313 MiB available memory on the printing compute node when the environment starts
 
     Reading input from Si64.scf.kpoint.5.in

     Current dimensions of program PWSCF are:
     Max number of different atomic species (ntypx) = 10
     Max number of k-points (npk) =  40000
     Max angular momentum in pseudopotentials (lmaxx) =  4
     Found identity + ( -0.5000  0.0000  0.0000) symmetry
     This is a supercell, fractional translations are disabled
     Message from routine setup:
     using ibrav=0 with symmetry is DISCOURAGED, use correct ibrav instead

     Subspace diagonalization in iterative solution of the eigenvalue problem:
     a serial algorithm will be used

 
     G-vector sticks info
     --------------------
     sticks:   dense  smooth     PW     G-vecs:    dense   smooth      PW
     Sum        4061    4061   1117               195797   195797   28257
 
     Using Slab Decomposition
 


     bravais-lattice index     =            0
     lattice parameter (alat)  =      20.6660  a.u.
     unit-cell volume          =    8826.0984 (a.u.)^3
     number of atoms/cell      =           64
     number of atomic types    =            1
     number of electrons       =       256.00
     number of Kohn-Sham states=          128
     kinetic-energy cutoff     =      30.0000  Ry
     charge density cutoff     =     120.0000  Ry
     scf convergence threshold =      1.0E-06
     mixing beta               =       0.7000
     number of iterations used =            8  plain     mixing
     Exchange-correlation=  SLA  PW   PBE  PBE
                           (   1   4   3   4   0   0   0)

     celldm(1)=  20.665992  celldm(2)=   0.000000  celldm(3)=   0.000000
     celldm(4)=   0.000000  celldm(5)=   0.000000  celldm(6)=   0.000000

     crystal axes: (cart. coord. in units of alat)
               a(1) = (   1.000000   0.000000   0.000000 )  
               a(2) = (   0.000000   1.000000   0.000000 )  
               a(3) = (   0.000000   0.000000   1.000000 )  

     reciprocal axes: (cart. coord. in units 2 pi/alat)
               b(1) = (  1.000000  0.000000  0.000000 )  
               b(2) = (  0.000000  1.000000  0.000000 )  
               b(3) = (  0.000000  0.000000  1.000000 )  


     PseudoPot. # 1 for Si read from file:
     ../Si.pbe-rrkj.UPF
     MD5 check sum: cf7ab5690cd9a85b22c4813f7e365554
     Pseudo is Norm-conserving, Zval =  4.0
     Generated by new atomic code, or converted to UPF format
     Using radial grid of  883 points,  3 beta functions with: 
                l(1) =   0
                l(2) =   0
                l(3) =   1

     atomic species   valence    mass     pseudopotential
        Si             4.00    28.08600     Si( 1.00)

      6 Sym. Ops. (no inversion) found



   Cartesian axes

     site n.     atom                  positions (alat units)
         1           Si  tau(   1) = (   0.3669965   0.3669965   0.0000000  )
         2           Si  tau(   2) = (   0.8669965   0.3669965   0.0000000  )
         3           Si  tau(   3) = (   0.3669965   0.8669965   0.0000000  )
         4           Si  tau(   4) = (   0.8669965   0.8669965   0.0000000  )
         5           Si  tau(   5) = (   0.3669965   0.3669965   0.5000000  )
         6           Si  tau(   6) = (   0.8669965   0.3669965   0.5000000  )
         7           Si  tau(   7) = (   0.3669965   0.8669965   0.5000000  )
         8           Si  tau(   8) = (   0.8669965   0.8669965   0.5000000  )
         9           Si  tau(   9) = (   0.0000000   0.0000000   0.0000000  )
        10           Si  tau(  10) = (   0.5000000   0.0000000   0.0000000  )
        11           Si  tau(  11) = (   0.0000000   0.5000000   0.0000000  )
        12           Si  tau(  12) = (   0.5000000   0.5000000   0.0000000  )
        13           Si  tau(  13) = (   0.0000000   0.0000000   0.5000000  )
        14           Si  tau(  14) = (   0.5000000   0.0000000   0.5000000  )
        15           Si  tau(  15) = (   0.0000000   0.5000000   0.5000000  )
        16           Si  tau(  16) = (   0.5000000   0.5000000   0.5000000  )
        17           Si  tau(  17) = (   0.3669965   0.0000000   0.3669965  )
        18           Si  tau(  18) = (   0.8669965   0.0000000   0.3669965  )
        19           Si  tau(  19) = (   0.3669965   0.5000000   0.3669965  )
        20           Si  tau(  20) = (   0.8669965   0.5000000   0.3669965  )
        21           Si  tau(  21) = (   0.3669965   0.0000000   0.8669965  )
        22           Si  tau(  22) = (   0.8669965   0.0000000   0.8669965  )
        23           Si  tau(  23) = (   0.3669965   0.5000000   0.8669965  )
        24           Si  tau(  24) = (   0.8669965   0.5000000   0.8669965  )
        25           Si  tau(  25) = (   0.0000000   0.3669965   0.3669965  )
        26           Si  tau(  26) = (   0.5000000   0.3669965   0.3669965  )
        27           Si  tau(  27) = (   0.0000000   0.8669965   0.3669965  )
        28           Si  tau(  28) = (   0.5000000   0.8669965   0.3669965  )
        29           Si  tau(  29) = (   0.0000000   0.3669965   0.8669965  )
        30           Si  tau(  30) = (   0.5000000   0.3669965   0.8669965  )
        31           Si  tau(  31) = (   0.0000000   0.8669965   0.8669965  )
        32           Si  tau(  32) = (   0.5000000   0.8669965   0.8669965  )
        33           Si  tau(  33) = (   0.0504947   0.0504947   0.6834982  )
        34           Si  tau(  34) = (   0.5504947   0.0504947   0.6834982  )
        35           Si  tau(  35) = (   0.0504947   0.5504947   0.6834982  )
        36           Si  tau(  36) = (   0.5504947   0.5504947   0.6834982  )
        37           Si  tau(  37) = (   0.0504947   0.0504947   0.1834982  )
        38           Si  tau(  38) = (   0.5504947   0.0504947   0.1834982  )
        39           Si  tau(  39) = (   0.0504947   0.5504947   0.1834982  )
        40           Si  tau(  40) = (   0.5504947   0.5504947   0.1834982  )
        41           Si  tau(  41) = (   0.6834982   0.6834982   0.6834982  )
        42           Si  tau(  42) = (   0.1834982   0.6834982   0.6834982  )
        43           Si  tau(  43) = (   0.6834982   0.1834982   0.6834982  )
        44           Si  tau(  44) = (   0.1834982   0.1834982   0.6834982  )
        45           Si  tau(  45) = (   0.6834982   0.6834982   0.1834982  )
        46           Si  tau(  46) = (   0.1834982   0.6834982   0.1834982  )
        47           Si  tau(  47) = (   0.6834982   0.1834982   0.1834982  )
        48           Si  tau(  48) = (   0.1834982   0.1834982   0.1834982  )
        49           Si  tau(  49) = (   0.0504947   0.6834982   0.0504947  )
        50           Si  tau(  50) = (   0.5504947   0.6834982   0.0504947  )
        51           Si  tau(  51) = (   0.0504947   0.1834982   0.0504947  )
        52           Si  tau(  52) = (   0.5504947   0.1834982   0.0504947  )
        53           Si  tau(  53) = (   0.0504947   0.6834982   0.5504947  )
        54           Si  tau(  54) = (   0.5504947   0.6834982   0.5504947  )
        55           Si  tau(  55) = (   0.0504947   0.1834982   0.5504947  )
        56           Si  tau(  56) = (   0.5504947   0.1834982   0.5504947  )
        57           Si  tau(  57) = (   0.6834982   0.0504947   0.0504947  )
        58           Si  tau(  58) = (   0.1834982   0.0504947   0.0504947  )
        59           Si  tau(  59) = (   0.6834982   0.5504947   0.0504947  )
        60           Si  tau(  60) = (   0.1834982   0.5504947   0.0504947  )
        61           Si  tau(  61) = (   0.6834982   0.0504947   0.5504947  )
        62           Si  tau(  62) = (   0.1834982   0.0504947   0.5504947  )
        63           Si  tau(  63) = (   0.6834982   0.5504947   0.5504947  )
        64           Si  tau(  64) = (   0.1834982   0.5504947   0.5504947  )

     number of k points=    19
                       cart. coord. in units 2pi/alat
        k(    1) = (   0.1000000   0.1000000   0.1000000), wk =   0.0320000
        k(    2) = (   0.1000000   0.1000000   0.3000000), wk =   0.0960000
        k(    3) = (   0.1000000   0.1000000  -0.5000000), wk =   0.0960000
        k(    4) = (   0.1000000   0.3000000   0.3000000), wk =   0.0960000
        k(    5) = (   0.1000000   0.3000000  -0.5000000), wk =   0.1920000
        k(    6) = (   0.1000000  -0.5000000  -0.5000000), wk =   0.0960000
        k(    7) = (   0.3000000   0.3000000   0.3000000), wk =   0.0320000
        k(    8) = (   0.3000000   0.3000000  -0.5000000), wk =   0.0960000
        k(    9) = (   0.3000000  -0.5000000  -0.5000000), wk =   0.0960000
        k(   10) = (  -0.5000000  -0.5000000  -0.5000000), wk =   0.0160000
        k(   11) = (   0.1000000  -0.1000000   0.1000000), wk =   0.0960000
        k(   12) = (   0.1000000  -0.1000000   0.3000000), wk =   0.1920000
        k(   13) = (  -0.3000000   0.1000000   0.1000000), wk =   0.0960000
        k(   14) = (   0.1000000  -0.1000000  -0.5000000), wk =   0.0960000
        k(   15) = (   0.3000000  -0.1000000   0.3000000), wk =   0.0960000
        k(   16) = (  -0.3000000   0.1000000   0.3000000), wk =   0.1920000
        k(   17) = (   0.3000000  -0.1000000  -0.5000000), wk =   0.1920000
        k(   18) = (   0.3000000  -0.3000000   0.3000000), wk =   0.0960000
        k(   19) = (   0.3000000  -0.3000000  -0.5000000), wk =   0.0960000

     Dense  grid:   195797 G-vectors     FFT dimensions: (  75,  75,  75)

     Estimated max dynamical RAM per process >       1.35 GB

     Initial potential from superposition of free atoms

     starting charge     255.9646, renormalised to     256.0000
     Starting wfcs are  256 randomized atomic wfcs

     total cpu time spent up to now is      177.3 secs

     Self-consistent Calculation

     iteration #  1     ecut=    30.00 Ry     beta= 0.70
     Davidson diagonalization with overlap
     ethr =  1.00E-02,  avg # of iterations =  3.0

     total cpu time spent up to now is      506.5 secs

     total energy              =    -491.27145191 Ry
     estimated scf accuracy    <       6.74149065 Ry

     iteration #  2     ecut=    30.00 Ry     beta= 0.70
     Davidson diagonalization with overlap
     ethr =  2.63E-03,  avg # of iterations =  3.2

     total cpu time spent up to now is      825.9 secs

     total energy              =    -493.12293730 Ry
     estimated scf accuracy    <       2.23297865 Ry

     iteration #  3     ecut=    30.00 Ry     beta= 0.70
     Davidson diagonalization with overlap
     ethr =  8.72E-04,  avg # of iterations =  7.2

     total cpu time spent up to now is     1141.7 secs

     total energy              =    -493.68120326 Ry
     estimated scf accuracy    <       0.08225874 Ry

     iteration #  4     ecut=    30.00 Ry     beta= 0.70
     Davidson diagonalization with overlap
     c_bands:  1 eigenvalues not converged
     ethr =  3.21E-05,  avg # of iterations = 14.4

     total cpu time spent up to now is     1633.9 secs

     total energy              =    -493.76639881 Ry
     estimated scf accuracy    <       0.03987504 Ry

     iteration #  5     ecut=    30.00 Ry     beta= 0.70
     Davidson diagonalization with overlap
     c_bands:  2 eigenvalues not converged
     ethr =  1.56E-05,  avg # of iterations = 10.4

     total cpu time spent up to now is     1980.0 secs

     total energy              =    -493.76744455 Ry
     estimated scf accuracy    <       0.04956349 Ry

     iteration #  6     ecut=    30.00 Ry     beta= 0.70
     Davidson diagonalization with overlap
     c_bands:  1 eigenvalues not converged
     c_bands:  1 eigenvalues not converged
     ethr =  1.56E-05,  avg # of iterations = 13.3

     total cpu time spent up to now is     2337.1 secs

     total energy              =    -493.77085975 Ry
     estimated scf accuracy    <       0.08823690 Ry

     iteration #  7     ecut=    30.00 Ry     beta= 0.70
     Davidson diagonalization with overlap
     c_bands:  1 eigenvalues not converged
     ethr =  1.56E-05,  avg # of iterations =  9.2

     total cpu time spent up to now is     2630.0 secs

     total energy              =    -493.77623338 Ry
     estimated scf accuracy    <       0.00401925 Ry

     iteration #  8     ecut=    30.00 Ry     beta= 0.70
     Davidson diagonalization with overlap
     c_bands:  1 eigenvalues not converged
     ethr =  1.57E-06,  avg # of iterations = 11.0

     total cpu time spent up to now is     3029.3 secs

     total energy              =    -493.77769067 Ry
     estimated scf accuracy    <       0.01007124 Ry

     iteration #  9     ecut=    30.00 Ry     beta= 0.70
     Davidson diagonalization with overlap
     ethr =  1.57E-06,  avg # of iterations =  4.1

     total cpu time spent up to now is     3282.3 secs

     total energy              =    -493.77776000 Ry
     estimated scf accuracy    <       0.00550764 Ry

     iteration # 10     ecut=    30.00 Ry     beta= 0.70
     Davidson diagonalization with overlap
     c_bands:  2 eigenvalues not converged
     ethr =  1.57E-06,  avg # of iterations =  6.4

     total cpu time spent up to now is     3516.6 secs

     total energy              =    -493.77765123 Ry
     estimated scf accuracy    <       0.00268735 Ry

     iteration # 11     ecut=    30.00 Ry     beta= 0.70
     Davidson diagonalization with overlap
     ethr =  1.05E-06,  avg # of iterations =  9.9

     total cpu time spent up to now is     3807.2 secs

     total energy              =    -493.77800039 Ry
     estimated scf accuracy    <       0.00035205 Ry

     iteration # 12     ecut=    30.00 Ry     beta= 0.70
     Davidson diagonalization with overlap
     ethr =  1.38E-07,  avg # of iterations =  8.8

     total cpu time spent up to now is     4110.7 secs

     total energy              =    -493.77799617 Ry
     estimated scf accuracy    <       0.00042887 Ry

     iteration # 13     ecut=    30.00 Ry     beta= 0.70
     Davidson diagonalization with overlap
     ethr =  1.38E-07,  avg # of iterations =  4.6

     total cpu time spent up to now is     4337.1 secs

     total energy              =    -493.77798705 Ry
     estimated scf accuracy    <       0.00014709 Ry

     iteration # 14     ecut=    30.00 Ry     beta= 0.70
     Davidson diagonalization with overlap
     c_bands:  3 eigenvalues not converged
     c_bands:  1 eigenvalues not converged
     ethr =  5.75E-08,  avg # of iterations = 12.1

     total cpu time spent up to now is     4684.5 secs

     total energy              =    -493.77803252 Ry
     estimated scf accuracy    <       0.00012187 Ry

     iteration # 15     ecut=    30.00 Ry     beta= 0.70
     Davidson diagonalization with overlap
     ethr =  4.76E-08,  avg # of iterations =  2.1

     total cpu time spent up to now is     4887.0 secs

     total energy              =    -493.77802613 Ry
     estimated scf accuracy    <       0.00008737 Ry

     iteration # 16     ecut=    30.00 Ry     beta= 0.70
     Davidson diagonalization with overlap
     ethr =  3.41E-08,  avg # of iterations =  4.1

     total cpu time spent up to now is     5110.1 secs

     total energy              =    -493.77802678 Ry
     estimated scf accuracy    <       0.00004018 Ry

     iteration # 17     ecut=    30.00 Ry     beta= 0.70
     Davidson diagonalization with overlap
     ethr =  1.57E-08,  avg # of iterations =  8.2

     total cpu time spent up to now is     5370.4 secs

     total energy              =    -493.77802956 Ry
     estimated scf accuracy    <       0.00000690 Ry

     iteration # 18     ecut=    30.00 Ry     beta= 0.70
     Davidson diagonalization with overlap
     c_bands:  2 eigenvalues not converged
     ethr =  2.69E-09,  avg # of iterations = 11.9

     total cpu time spent up to now is     5718.1 secs

     total energy              =    -493.77803193 Ry
     estimated scf accuracy    <       0.00000639 Ry

     iteration # 19     ecut=    30.00 Ry     beta= 0.70
     Davidson diagonalization with overlap
     ethr =  2.49E-09,  avg # of iterations =  1.3

     total cpu time spent up to now is     5915.9 secs

     total energy              =    -493.77803186 Ry
     estimated scf accuracy    <       0.00000539 Ry

     iteration # 20     ecut=    30.00 Ry     beta= 0.70
     Davidson diagonalization with overlap
     ethr =  2.10E-09,  avg # of iterations =  1.3

     total cpu time spent up to now is     6114.2 secs

     total energy              =    -493.77803095 Ry
     estimated scf accuracy    <       0.00000459 Ry

     iteration # 21     ecut=    30.00 Ry     beta= 0.70
     Davidson diagonalization with overlap
     ethr =  1.79E-09,  avg # of iterations =  9.9

     total cpu time spent up to now is     6433.8 secs

     total energy              =    -493.77803172 Ry
     estimated scf accuracy    <       0.00000394 Ry

     iteration # 22     ecut=    30.00 Ry     beta= 0.70
     Davidson diagonalization with overlap
     ethr =  1.54E-09,  avg # of iterations =  1.8

     total cpu time spent up to now is     6639.0 secs

     total energy              =    -493.77803147 Ry
     estimated scf accuracy    <       0.00000281 Ry

     iteration # 23     ecut=    30.00 Ry     beta= 0.70
     Davidson diagonalization with overlap
     ethr =  1.10E-09,  avg # of iterations =  8.2

     total cpu time spent up to now is     6904.0 secs

     End of self-consistent calculation

          k = 0.1000 0.1000 0.1000 ( 24453 PWs)   bands (ev):

    -9.5427  -9.3978  -9.3974  -9.3974  -9.2765  -9.2761  -9.2761  -9.1759
    -8.2716  -8.2427  -8.2426  -8.2426  -8.1704  -8.1702  -8.1702  -8.0176
    -3.7436  -3.5770  -3.5766  -3.5766  -3.4055  -3.4051  -3.4051  -3.3632
    -3.0115  -3.0115  -3.0114  -2.7433  -2.7433  -2.4746  -2.4746  -2.4746
    -1.8374  -1.8374  -1.6846  -1.6846  -1.6846  -1.6461  -1.6461  -1.6460
    -1.2197  -1.2197  -1.2196  -0.9992  -0.9992  -0.9991  -0.8597  -0.8597
    -0.8452  -0.8452  -0.8451  -0.5943  -0.5943   0.0383   0.0552   0.0552
     0.0552   0.1034   0.1035   0.1035   0.1833   0.2694   0.2694   0.2696
     0.7872   1.6830   1.6830   1.6830   1.8131   2.0718   2.0718   2.0720
     2.3414   2.3414   2.3414   2.4380   2.4380   2.4380   2.5152   2.5152
     3.0436   3.0436   3.0436   3.0495   3.0496   3.0496   3.0625   3.0625
     3.0625   3.0988   3.0988   3.0988   3.2632   3.2873   3.2873   3.2873
     3.6696   3.7452   3.7452   3.7887   3.7889   3.7889   3.8461   3.8461
     3.8463   4.0285   4.0286   4.0286   4.1964   4.1964   4.5019   4.5019
     4.8173   4.8173   5.2449   5.2449   5.2449   5.3062   5.3063   5.3063
     5.3508   5.3508   5.4140   5.4141   5.4141   5.7045   5.7045   5.7045

          k = 0.1000 0.1000 0.3000 ( 24521 PWs)   bands (ev):

    -9.5173  -9.4288  -9.3765  -9.3762  -9.3015  -9.3012  -9.2586  -9.1960
    -8.2654  -8.2462  -8.2268  -8.2268  -8.1816  -8.1815  -8.1362  -8.0448
    -3.7088  -3.6097  -3.5384  -3.5381  -3.4594  -3.4591  -3.4266  -3.3524
    -2.9679  -2.9295  -2.9295  -2.8038  -2.6273  -2.5420  -2.5420  -2.3298
    -2.0713  -2.0702  -1.8044  -1.7396  -1.7395  -1.6935  -1.6935  -1.6887
    -1.2379  -1.2379  -1.1130  -1.1129  -1.0241  -0.8837  -0.8542  -0.8419
    -0.7478  -0.6235  -0.5260  -0.5259  -0.4402  -0.0084   0.0306   0.0307
     0.0562   0.0841   0.1624   0.1625   0.1814   0.1977   0.2066   0.2067
     1.0203   1.7539   1.7598   1.7598   1.8466   1.9394   2.0565   2.0565
     2.1383   2.2763   2.2764   2.3505   2.4165   2.5177   2.5177   2.6175
     2.8135   2.8136   2.8478   2.9365   2.9366   3.0255   3.1244   3.1245
     3.1519   3.2032   3.2033   3.2360   3.3073   3.3086   3.3087   3.3479
     3.4719   3.6233   3.6233   3.7219   3.7219   3.8727   3.8749   3.8871
     3.8872   3.9144   3.9145   4.0289   4.1676   4.2328   4.3565   4.5054
     4.8966   4.9314   5.1680   5.2353   5.2353   5.2709   5.2904   5.2905
     5.3132   5.3506   5.3748   5.3749   5.4853   5.5488   5.5488   5.6780

          k = 0.1000 0.1000-0.5000 ( 24498 PWs)   bands (ev):

    -9.4754  -9.4741  -9.3404  -9.3401  -9.3399  -9.3396  -9.2287  -9.2276
    -8.2561  -8.2539  -8.2035  -8.2034  -8.2021  -8.2020  -8.0905  -8.0865
    -3.6630  -3.6557  -3.5257  -3.5255  -3.4798  -3.4795  -3.4278  -3.3521
    -2.8910  -2.8908  -2.7856  -2.7856  -2.7043  -2.7042  -2.3985  -2.3919
    -2.2943  -2.1149  -1.7506  -1.7479  -1.7439  -1.7438  -1.6624  -1.6624
    -1.2839  -1.2839  -1.1996  -1.1995  -1.0441  -0.8476  -0.8437  -0.8238
    -0.7117  -0.6936  -0.1984  -0.1983  -0.1877  -0.1856  -0.0624  -0.0623
     0.0840   0.0897   0.0898   0.1405   0.1466   0.2032   0.2033   0.2797
     1.3840   1.3871   1.7534   1.8531   1.8630   1.8630   1.9237   1.9237
     2.2644   2.2711   2.4452   2.4453   2.4909   2.4910   2.5669   2.6168
     2.6771   2.7032   2.7033   2.7805   2.7806   2.7970   3.1654   3.1654
     3.2164   3.2165   3.2994   3.3426   3.3571   3.4342   3.4460   3.4461
     3.4968   3.5132   3.5375   3.5730   3.6271   3.6271   3.8247   3.8248
     3.9779   3.9900   3.9902   4.1506   4.2772   4.2786   4.2943   4.3072
     5.0498   5.0625   5.0771   5.0772   5.0781   5.2538   5.2863   5.3075
     5.3076   5.3092   5.3093   5.3560   5.3976   5.3977   5.6496   5.7419

          k = 0.1000 0.3000 0.3000 ( 24450 PWs)   bands (ev):

    -9.4922  -9.4071  -9.4068  -9.3555  -9.3274  -9.2833  -9.2830  -9.2170
    -8.2578  -8.2315  -8.2314  -8.2083  -8.1920  -8.1497  -8.1496  -8.0700
    -3.6706  -3.5749  -3.5747  -3.5021  -3.4890  -3.4838  -3.4835  -3.3360
    -2.8934  -2.8933  -2.8715  -2.7682  -2.6085  -2.5534  -2.3777  -2.3777
    -2.2248  -2.0719  -2.0719  -1.9982  -1.8747  -1.7801  -1.7800  -1.6899
    -1.2638  -1.1431  -1.1430  -0.8957  -0.8823  -0.8822  -0.7567  -0.6260
    -0.5565  -0.5460  -0.5460  -0.4473  -0.3963  -0.1414   0.0142   0.0143
     0.0233   0.0608   0.0609   0.1697   0.1804   0.2207   0.2390   0.2391
     1.1881   1.7218   1.7833   1.9079   1.9080   1.9523   1.9523   2.1004
     2.1863   2.2223   2.2223   2.3728   2.3729   2.4128   2.4941   2.6239
     2.7238   2.7489   2.7490   2.8702   2.9079   2.9079   2.9765   3.0707
     3.1240   3.2215   3.2216   3.2705   3.2775   3.2775   3.3811   3.3884
     3.3885   3.4943   3.5388   3.6833   3.8077   3.8078   3.8587   3.9566
     3.9807   3.9808   3.9912   3.9924   4.0808   4.0810   4.3477   4.3732
     4.8792   5.0844   5.2171   5.2172   5.2218   5.2219   5.3769   5.3974
     5.4049   5.4477   5.4477   5.4814   5.4948   5.5014   5.5014   5.5217

          k = 0.1000 0.3000-0.5000 ( 24500 PWs)   bands (ev):

    -9.4523  -9.4499  -9.3694  -9.3677  -9.3206  -9.3203  -9.2520  -9.2500
    -8.2457  -8.2415  -8.2107  -8.2102  -8.1796  -8.1750  -8.1116  -8.1044
    -3.6322  -3.6155  -3.5563  -3.5423  -3.5207  -3.4741  -3.4378  -3.3430
    -2.8281  -2.8188  -2.7767  -2.7358  -2.6777  -2.5523  -2.4266  -2.4150
    -2.3843  -2.1611  -2.1007  -2.0142  -1.8404  -1.8213  -1.7709  -1.6450
    -1.3175  -1.2241  -1.1842  -0.9838  -0.9348  -0.7937  -0.6772  -0.6145
    -0.5808  -0.4096  -0.3353  -0.2445  -0.2108  -0.1816  -0.0580  -0.0370
     0.0020   0.0185   0.0718   0.0995   0.1146   0.2075   0.2523   0.3229
     1.4471   1.4936   1.7631   1.8063   1.8237   1.9502   1.9597   2.0941
     2.2996   2.3101   2.3492   2.3638   2.4379   2.4823   2.5139   2.5664
     2.6418   2.6562   2.6820   2.7424   2.7716   2.7804   2.9644   3.0226
     3.0681   3.0820   3.2256   3.2269   3.3359   3.3376   3.3797   3.4272
     3.4428   3.5734   3.6272   3.6790   3.7315   3.7894   3.8572   3.8686
     3.9991   4.0346   4.0728   4.0958   4.0963   4.1271   4.2236   4.2581
     4.9782   5.0130   5.1388   5.1484   5.2071   5.2260   5.2510   5.3459
     5.4092   5.4611   5.4616   5.4932   5.5013   5.5439   5.5828   5.5933

          k = 0.1000-0.5000-0.5000 ( 24524 PWs)   bands (ev):

    -9.4127  -9.4124  -9.4107  -9.4096  -9.2876  -9.2873  -9.2867  -9.2852
    -8.2293  -8.2258  -8.2242  -8.2242  -8.1458  -8.1428  -8.1374  -8.1373
    -3.6006  -3.5838  -3.5835  -3.5594  -3.5162  -3.5160  -3.4045  -3.3678
    -2.7668  -2.7667  -2.7408  -2.6857  -2.6007  -2.6002  -2.3699  -2.3699
    -2.3505  -2.3498  -2.2797  -2.2797  -1.8351  -1.7722  -1.7721  -1.5916
    -1.3741  -1.2667  -1.2666  -1.0931  -0.7150  -0.7150  -0.5351  -0.5349
    -0.3966  -0.3342  -0.3321  -0.3321  -0.1346  -0.1345  -0.0652  -0.0643
    -0.0613   0.0292   0.0377   0.0378   0.1195   0.1528   0.2838   0.2838
     1.5611   1.6101   1.6819   1.6820   1.8443   1.9721   2.1078   2.1080
     2.3047   2.3501   2.3798   2.3799   2.4368   2.4368   2.5403   2.5404
     2.5485   2.5628   2.6137   2.7079   2.7982   2.7983   2.8214   2.8506
     2.9232   3.0677   3.0678   3.1594   3.3340   3.3340   3.3570   3.4496
     3.6010   3.6010   3.7630   3.7922   3.8449   3.8527   3.8949   3.8951
     3.9053   3.9448   3.9450   3.9660   4.0685   4.1466   4.2522   4.2523
     4.9635   4.9636   5.0938   5.1269   5.2923   5.2924   5.3363   5.3364
     5.4197   5.4284   5.4566   5.5323   5.5323   5.5584   5.5617   5.5834

          k = 0.3000 0.3000 0.3000 ( 24531 PWs)   bands (ev):

    -9.4675  -9.3857  -9.3853  -9.3853  -9.3090  -9.3086  -9.3086  -9.2387
    -8.2487  -8.2141  -8.2140  -8.2140  -8.1624  -8.1623  -8.1623  -8.0934
    -3.6224  -3.5390  -3.5386  -3.5386  -3.5230  -3.5226  -3.5226  -3.3210
    -2.8289  -2.8289  -2.8288  -2.6675  -2.6675  -2.3708  -2.3708  -2.3707
    -2.1866  -2.1866  -2.0641  -2.0641  -2.0641  -2.0496  -2.0496  -2.0495
    -0.8911  -0.8911  -0.8910  -0.8543  -0.8543  -0.8543  -0.5793  -0.5793
    -0.5792  -0.4726  -0.4726  -0.4186  -0.4186  -0.3513   0.0115   0.0116
     0.0116   0.0237   0.0237   0.0239   0.1294   0.2698   0.2699   0.2699
     1.3210   1.6824   1.9544   1.9544   1.9544   2.0309   2.0309   2.0309
     2.2369   2.2369   2.2371   2.3715   2.3716   2.3716   2.4987   2.4987
     2.7265   2.7265   2.7265   2.7732   2.7732   2.7732   3.0546   3.0546
     3.0581   3.0920   3.0920   3.0921   3.1223   3.1223   3.1223   3.5111
     3.5111   3.5112   3.7245   3.8254   3.8254   3.8255   3.8687   3.8687
     3.8908   3.8909   3.8909   4.0702   4.0704   4.0704   4.3397   4.3397
     4.9913   4.9913   5.3245   5.3245   5.3246   5.3748   5.3749   5.3749
     5.4209   5.4209   5.5486   5.5486   5.5487   5.5639   5.5639   5.5639

          k = 0.3000 0.3000-0.5000 ( 24514 PWs)   bands (ev):

    -9.4296  -9.4262  -9.3489  -9.3486  -9.3481  -9.3478  -9.2763  -9.2732
    -8.2336  -8.2267  -8.1878  -8.1877  -8.1856  -8.1855  -8.1310  -8.1212
    -3.6063  -3.5658  -3.5655  -3.5594  -3.5005  -3.4979  -3.4976  -3.3404
    -2.7535  -2.7527  -2.7041  -2.7040  -2.5271  -2.5271  -2.4500  -2.4378
    -2.3813  -2.1301  -2.1301  -2.1232  -2.1204  -2.1053  -2.0016  -2.0016
    -1.0032  -0.9579  -0.9579  -0.8294  -0.8293  -0.6365  -0.5534  -0.5257
    -0.5215  -0.5178  -0.3486  -0.3484  -0.2013  -0.1970  -0.0756  -0.0650
    -0.0649   0.0230   0.0230   0.0312   0.0685   0.2219   0.2219   0.3016
     1.5089   1.6284   1.7175   1.9422   1.9422   2.0279   2.0280   2.0690
     2.3437   2.3486   2.4098   2.4098   2.4690   2.4691   2.4743   2.5328
     2.6308   2.6309   2.6668   2.6754   2.6910   2.6910   2.9673   2.9673
     2.9873   2.9909   3.0010   3.0011   3.0493   3.0861   3.1091   3.5080
     3.6177   3.6177   3.6795   3.7106   3.8235   3.8235   3.8908   3.8909
     4.0005   4.0272   4.0510   4.0888   4.0889   4.1141   4.1195   4.2141
     5.0853   5.1258   5.1259   5.1520   5.2004   5.3929   5.4129   5.4129
     5.4693   5.4807   5.5102   5.5102   5.5424   5.5965   5.5965   5.6481

          k = 0.3000-0.5000-0.5000 ( 24488 PWs)   bands (ev):

    -9.3908  -9.3905  -9.3899  -9.3868  -9.3138  -9.3137  -9.3135  -9.3100
    -8.2135  -8.2050  -8.2050  -8.2047  -8.1619  -8.1539  -8.1517  -8.1516
    -3.5980  -3.5716  -3.5714  -3.5283  -3.5281  -3.4931  -3.4747  -3.3770
    -2.6740  -2.6592  -2.6591  -2.5602  -2.5589  -2.5230  -2.4071  -2.4055
    -2.3934  -2.3934  -2.2937  -2.2936  -2.1967  -2.0795  -2.0794  -1.9465
    -1.0309  -0.9464  -0.9464  -0.6875  -0.6874  -0.6518  -0.5229  -0.4356
    -0.4350  -0.3278  -0.3278  -0.3048  -0.1954  -0.1953  -0.1718  -0.1465
    -0.1445  -0.0002   0.0513   0.0514   0.0781   0.1446   0.2097   0.2097
     1.6032   1.7334   1.8056   1.8332   1.8332   2.0678   2.1440   2.1440
     2.3836   2.4316   2.4316   2.4931   2.4931   2.4949   2.5420   2.5577
     2.5579   2.5810   2.6026   2.6853   2.6913   2.7424   2.7451   2.7451
     2.7987   2.8684   2.8685   2.9650   2.9651   3.0393   3.1199   3.3147
     3.7412   3.7413   3.8605   3.8720   3.8761   3.8762   3.8871   3.8976
     3.9208   3.9248   3.9804   3.9805   4.0410   4.1414   4.1415   4.1744
     5.1316   5.2150   5.2319   5.2320   5.2488   5.2489   5.3092   5.3120
     5.4317   5.4842   5.4943   5.5504   5.5504   5.6258   5.6258   5.6598

          k =-0.5000-0.5000-0.5000 ( 24464 PWs)   bands (ev):

    -9.3538  -9.3537  -9.3533  -9.3533  -9.3533  -9.3533  -9.3494  -9.3493
    -8.1873  -8.1870  -8.1770  -8.1769  -8.1769  -8.1767  -8.1766  -8.1766
    -3.5500  -3.5499  -3.5496  -3.5496  -3.5496  -3.5496  -3.4250  -3.4250
    -2.4885  -2.4885  -2.4884  -2.4883  -2.4883  -2.4881  -2.4867  -2.4867
    -2.4865  -2.4865  -2.2714  -2.2714  -2.2714  -2.2712  -2.2712  -2.2712
    -0.7299  -0.7299  -0.7299  -0.7298  -0.7298  -0.7297  -0.2857  -0.2857
    -0.2856  -0.2855  -0.2855  -0.2854  -0.2840  -0.2840  -0.2838  -0.2838
    -0.2378  -0.2376   0.1129   0.1130   0.1130   0.1132   0.1132   0.1132
     1.6635   1.6637   2.0500   2.0501   2.0501   2.0502   2.0502   2.0502
     2.5609   2.5609   2.5609   2.5611   2.5611   2.5611   2.5793   2.5793
     2.5794   2.5794   2.6342   2.6342   2.6343   2.6343   2.6343   2.6344
     2.6967   2.6967   2.6967   2.6968   2.6968   2.6968   3.2397   3.2398
     3.9339   3.9339   3.9340   3.9340   3.9340   3.9341   3.9413   3.9414
     3.9415   3.9415   3.9416   3.9416   3.9750   3.9750   3.9752   3.9752
     5.2596   5.2596   5.2597   5.2597   5.3504   5.3504   5.3505   5.3505
     5.3505   5.3507   5.5963   5.5963   5.5963   5.5964   5.5964   5.5964

          k = 0.1000-0.1000 0.1000 ( 24453 PWs)   bands (ev):

    -9.5430  -9.3976  -9.3972  -9.3969  -9.2766  -9.2762  -9.2759  -9.1763
    -8.2709  -8.2432  -8.2422  -8.2421  -8.1716  -8.1707  -8.1706  -8.0164
    -3.7465  -3.5912  -3.5909  -3.5751  -3.3897  -3.3894  -3.3843  -3.3780
    -3.0114  -2.9933  -2.9932  -2.7434  -2.7401  -2.5200  -2.5187  -2.5187
    -1.8381  -1.7262  -1.6829  -1.6829  -1.6806  -1.6451  -1.5097  -1.5096
    -1.2633  -1.2633  -1.2261  -1.2237  -1.2237  -1.0480  -0.9666  -0.8587
    -0.8466  -0.6519  -0.6518  -0.6037  -0.5946   0.0561   0.0562   0.0624
     0.0625   0.0663   0.0827   0.1849   0.2636   0.2637   0.2683   0.2707
     0.6675   1.6505   1.6636   1.6637   1.8434   2.0741   2.0949   2.0950
     2.3067   2.3453   2.3453   2.4539   2.4564   2.4564   2.5022   2.5130
     2.8850   2.8850   3.0351   3.0400   3.0401   3.0569   3.0699   3.0960
     3.1432   3.1432   3.1714   3.1715   3.1964   3.2942   3.3610   3.3610
     3.5470   3.7044   3.7045   3.7761   3.7869   3.8556   3.8557   3.8817
     3.8986   4.0837   4.0900   4.0900   4.2086   4.2514   4.3939   4.4348
     4.8339   4.9408   5.0578   5.0578   5.2442   5.2761   5.2761   5.3049
     5.3067   5.3906   5.4065   5.4066   5.4423   5.6610   5.6616   5.6616

          k = 0.1000-0.1000 0.3000 ( 24521 PWs)   bands (ev):

    -9.5179  -9.4283  -9.3764  -9.3754  -9.3019  -9.3007  -9.2585  -9.1967
    -8.2640  -8.2464  -8.2280  -8.2252  -8.1839  -8.1814  -8.1376  -8.0427
    -3.7155  -3.6188  -3.5731  -3.5347  -3.4456  -3.4137  -3.3948  -3.3899
    -2.9536  -2.9266  -2.8835  -2.7992  -2.6243  -2.6122  -2.5929  -2.4167
    -2.0714  -2.0277  -1.7392  -1.7096  -1.6991  -1.6654  -1.5648  -1.5472
    -1.3446  -1.2512  -1.2385  -1.2221  -1.1503  -1.0875  -0.8835  -0.7190
    -0.6527  -0.6334  -0.5008  -0.4480  -0.3550   0.0265   0.0288   0.0426
     0.0683   0.1031   0.1142   0.1278   0.1996   0.2029   0.2206   0.2219
     0.9391   1.6998   1.7350   1.8049   1.8095   1.9147   2.0588   2.0899
     2.1709   2.2241   2.3309   2.3774   2.4178   2.5576   2.5587   2.5915
     2.7810   2.7914   2.8785   2.8848   2.9459   2.9604   3.0972   3.1085
     3.1544   3.1651   3.1845   3.1928   3.3634   3.3680   3.4298   3.4628
     3.4629   3.4936   3.5378   3.7495   3.8063   3.8262   3.8559   3.8853
     3.9513   4.0215   4.0378   4.0433   4.1651   4.2150   4.2434   4.4914
     4.9531   4.9918   5.0165   5.1032   5.1959   5.2078   5.2266   5.2868
     5.3327   5.3345   5.3354   5.3737   5.4493   5.6107   5.6153   5.7038

          k =-0.3000 0.1000 0.1000 ( 24521 PWs)   bands (ev):

    -9.5182  -9.4276  -9.3761  -9.3758  -9.3019  -9.3016  -9.2578  -9.1970
    -8.2635  -8.2480  -8.2257  -8.2256  -8.1826  -8.1825  -8.1396  -8.0416
    -3.7158  -3.6048  -3.5751  -3.5748  -3.4202  -3.4199  -3.4098  -3.3600
    -2.9677  -2.8776  -2.8775  -2.8040  -2.6339  -2.6339  -2.6199  -2.4542
    -2.0718  -1.8726  -1.8063  -1.7084  -1.7084  -1.6862  -1.5458  -1.5458
    -1.3526  -1.3525  -1.2276  -1.2275  -1.0708  -0.9136  -0.8818  -0.8514
    -0.8454  -0.6448  -0.4414  -0.3319  -0.3318   0.0066   0.0066   0.0464
     0.0464   0.0737   0.0867   0.1022   0.1987   0.2284   0.2284   0.3518
     0.8840   1.7114   1.7114   1.7538   1.8314   1.8786   2.1142   2.1142
     2.1439   2.2781   2.2782   2.3932   2.4110   2.5599   2.5899   2.5899
     2.7719   2.7719   2.8317   2.8318   2.9331   2.9831   3.1397   3.1821
     3.1821   3.1890   3.1891   3.2177   3.2200   3.3886   3.4122   3.5207
     3.5207   3.5426   3.5427   3.6164   3.7399   3.8431   3.8432   3.9012
     3.9828   3.9928   4.0703   4.0703   4.1979   4.2283   4.3054   4.4551
     4.9555   4.9915   4.9916   5.1638   5.1674   5.1874   5.1874   5.1977
     5.2105   5.3615   5.3617   5.4218   5.5439   5.5439   5.5818   5.7714

          k = 0.1000-0.1000-0.5000 ( 24498 PWs)   bands (ev):

    -9.4749  -9.4749  -9.3405  -9.3405  -9.3392  -9.3391  -9.2284  -9.2284
    -8.2544  -8.2544  -8.2050  -8.2047  -8.2018  -8.2015  -8.0881  -8.0880
    -3.6662  -3.6661  -3.5183  -3.5182  -3.4755  -3.4755  -3.3955  -3.3955
    -2.8820  -2.8820  -2.7720  -2.7719  -2.7293  -2.7291  -2.3958  -2.3958
    -2.2404  -2.2404  -1.7464  -1.7463  -1.6787  -1.6785  -1.6054  -1.6054
    -1.2791  -1.2790  -1.2153  -1.2153  -1.1834  -1.1833  -0.7027  -0.7027
    -0.6633  -0.6633  -0.1964  -0.1964  -0.1613  -0.1612  -0.0976  -0.0974
     0.1191   0.1193   0.1477   0.1478   0.1696   0.1698   0.1814   0.1814
     1.3844   1.3844   1.8193   1.8193   1.8545   1.8546   1.8991   1.8991
     2.2869   2.2869   2.4193   2.4193   2.5252   2.5252   2.5851   2.5851
     2.7241   2.7244   2.7390   2.7391   2.7871   2.7872   3.1604   3.1604
     3.1870   3.1870   3.2682   3.2682   3.2846   3.2846   3.4893   3.4894
     3.5804   3.5806   3.6434   3.6434   3.6456   3.6456   3.9225   3.9226
     3.9292   3.9292   3.9543   3.9544   4.2598   4.2598   4.3260   4.3260
     5.0603   5.0604   5.1185   5.1187   5.2261   5.2261   5.2299   5.2299
     5.2378   5.2378   5.2488   5.2489   5.4521   5.4523   5.7916   5.7916

          k = 0.3000-0.1000 0.3000 ( 24450 PWs)   bands (ev):

    -9.4931  -9.4069  -9.4066  -9.3542  -9.3265  -9.2835  -9.2832  -9.2181
    -8.2555  -8.2308  -8.2307  -8.2102  -8.1952  -8.1504  -8.1503  -8.0672
    -3.6871  -3.5966  -3.5963  -3.4763  -3.4628  -3.4625  -3.4485  -3.3828
    -2.8712  -2.8600  -2.8599  -2.7476  -2.6336  -2.6088  -2.4558  -2.4558
    -2.2256  -2.0796  -2.0796  -1.9971  -1.7454  -1.6015  -1.6014  -1.5736
    -1.3480  -1.3479  -1.3118  -1.2066  -0.8804  -0.8804  -0.6973  -0.6274
    -0.5572  -0.4464  -0.4284  -0.3959  -0.3959  -0.0077  -0.0076   0.0250
     0.0809   0.0810   0.1071   0.1509   0.1509   0.1721   0.1814   0.1873
     1.1344   1.6881   1.8117   1.9021   1.9021   1.9087   1.9088   2.0313
     2.1849   2.2840   2.2840   2.4255   2.4290   2.4291   2.4956   2.6255
     2.7376   2.7376   2.8223   2.8721   2.8985   2.9158   2.9158   3.0058
     3.0897   3.0898   3.1555   3.2713   3.2929   3.3617   3.3617   3.3743
     3.5134   3.5135   3.6297   3.6298   3.7032   3.7581   3.8823   4.0051
     4.0272   4.0907   4.0945   4.0946   4.1151   4.1152   4.1322   4.3052
     4.9063   5.0264   5.0265   5.1654   5.1656   5.3519   5.3908   5.3984
     5.4047   5.4047   5.4510   5.4511   5.4629   5.4633   5.4753   5.5345

          k =-0.3000 0.1000 0.3000 ( 24450 PWs)   bands (ev):

    -9.4940  -9.4057  -9.4048  -9.3557  -9.3289  -9.2829  -9.2816  -9.2187
    -8.2542  -8.2347  -8.2319  -8.2043  -8.1916  -8.1557  -8.1533  -8.0644
    -3.6867  -3.6002  -3.5767  -3.5640  -3.4691  -3.4368  -3.4003  -3.3704
    -2.8858  -2.8438  -2.7723  -2.7448  -2.6716  -2.5856  -2.5699  -2.5689
    -2.0970  -2.0939  -2.0239  -1.8357  -1.7815  -1.7477  -1.7285  -1.5299
    -1.3833  -1.2452  -1.2328  -1.0974  -1.0502  -0.8545  -0.8466  -0.6439
    -0.6092  -0.4616  -0.3860  -0.3153  -0.1832  -0.0843  -0.0468  -0.0411
     0.0065   0.0708   0.1062   0.1258   0.1515   0.1826   0.2232   0.3506
     1.0909   1.7362   1.7722   1.8155   1.8401   1.8660   1.8726   2.1497
     2.1918   2.2470   2.3511   2.4356   2.4772   2.4821   2.4988   2.6032
     2.6435   2.7970   2.8281   2.8294   2.8593   2.8646   2.9368   3.0575
     3.0734   3.1777   3.1955   3.2207   3.2734   3.3174   3.3265   3.3912
     3.5118   3.6216   3.6402   3.6406   3.6847   3.8770   3.8914   3.9024
     3.9950   4.0173   4.1115   4.1169   4.1174   4.1295   4.1489   4.3813
     4.8829   4.9897   5.0885   5.1099   5.1377   5.1420   5.3510   5.3774
     5.3858   5.3916   5.4098   5.4199   5.4339   5.6375   5.6572   5.6996

          k = 0.3000-0.1000-0.5000 ( 24500 PWs)   bands (ev):

    -9.4521  -9.4510  -9.3694  -9.3667  -9.3209  -9.3189  -9.2520  -9.2513
    -8.2429  -8.2414  -8.2141  -8.2095  -8.1821  -8.1751  -8.1086  -8.1050
    -3.6425  -3.6400  -3.5391  -3.5338  -3.5063  -3.4587  -3.4161  -3.3877
    -2.8112  -2.7880  -2.7455  -2.7438  -2.7329  -2.5795  -2.4205  -2.4121
    -2.3915  -2.2535  -2.1032  -2.0253  -1.7868  -1.7155  -1.6622  -1.5231
    -1.3955  -1.3233  -1.2855  -1.1556  -0.9314  -0.7739  -0.6707  -0.6226
    -0.4817  -0.3230  -0.2966  -0.2510  -0.1950  -0.1756  -0.1166  -0.0818
     0.0382   0.0858   0.1082   0.1156   0.1341   0.1730   0.1959   0.2605
     1.4553   1.4923   1.7331   1.8224   1.8697   1.8789   1.9387   2.0409
     2.3212   2.3443   2.3487   2.3923   2.4527   2.5123   2.5334   2.5926
     2.5947   2.6503   2.7480   2.7541   2.7611   2.9012   2.9358   2.9814
     3.0413   3.0551   3.0894   3.1479   3.2500   3.2637   3.4537   3.5186
     3.5686   3.6495   3.6756   3.6759   3.6947   3.8150   3.8671   3.8810
     3.9659   3.9735   4.0202   4.0859   4.1052   4.1600   4.1657   4.3369
     4.9749   5.0096   5.0594   5.1737   5.1744   5.1865   5.2252   5.3821
     5.4046   5.4179   5.4576   5.4726   5.4944   5.5335   5.5868   5.7106

          k = 0.3000-0.3000 0.3000 ( 24531 PWs)   bands (ev):

    -9.4700  -9.3851  -9.3848  -9.3824  -9.3095  -9.3092  -9.3064  -9.2414
    -8.2428  -8.2193  -8.2122  -8.2121  -8.1706  -8.1641  -8.1640  -8.0857
    -3.6634  -3.5944  -3.5941  -3.5037  -3.4679  -3.4676  -3.4459  -3.3870
    -2.8282  -2.7272  -2.7271  -2.6683  -2.6139  -2.5943  -2.5694  -2.5693
    -2.1887  -2.1315  -2.1068  -2.1067  -2.0469  -1.8344  -1.8343  -1.7749
    -1.2165  -1.1241  -1.1241  -0.8614  -0.8613  -0.8058  -0.6452  -0.5827
    -0.5057  -0.4700  -0.4211  -0.2162  -0.2161  -0.1256  -0.1255  -0.0018
     0.0288   0.0663   0.0664   0.1155   0.1394   0.1394   0.1543   0.2673
     1.2805   1.7245   1.7765   1.9049   1.9050   1.9224   1.9489   1.9490
     2.2332   2.3951   2.3952   2.4757   2.4914   2.5029   2.5571   2.5571
     2.6499   2.6499   2.7322   2.7861   2.7861   2.8708   2.9417   2.9569
     2.9569   2.9641   3.1018   3.1351   3.1351   3.1405   3.2911   3.3556
     3.4908   3.5430   3.5430   3.7206   3.7207   3.8992   3.9455   3.9827
     4.0577   4.0579   4.0880   4.1135   4.1177   4.1339   4.1340   4.2209
     4.9476   4.9477   5.0501   5.2532   5.3005   5.3229   5.3230   5.4094
     5.4094   5.4249   5.5060   5.5085   5.5325   5.5388   5.5388   5.6247

          k = 0.3000-0.3000-0.5000 ( 24514 PWs)   bands (ev):

    -9.4291  -9.4290  -9.3487  -9.3487  -9.3454  -9.3453  -9.2764  -9.2764
    -8.2264  -8.2264  -8.1944  -8.1941  -8.1860  -8.1857  -8.1230  -8.1230
    -3.6271  -3.6270  -3.5436  -3.5436  -3.4591  -3.4591  -3.4384  -3.4384
    -2.6991  -2.6990  -2.6886  -2.6886  -2.6106  -2.6105  -2.4228  -2.4228
    -2.3944  -2.3944  -2.1492  -2.1492  -2.0502  -2.0500  -1.8145  -1.8145
    -1.1709  -1.1708  -0.9331  -0.9330  -0.7292  -0.7291  -0.5908  -0.5908
    -0.3051  -0.3050  -0.2780  -0.2780  -0.2386  -0.2385  -0.1657  -0.1655
     0.0770   0.0772   0.1036   0.1039   0.1057   0.1057   0.1636   0.1636
     1.6009   1.6009   1.7363   1.7365   1.9701   1.9702   2.0050   2.0050
     2.3725   2.3725   2.4410   2.4410   2.5583   2.5583   2.5754   2.5756
     2.6252   2.6252   2.6376   2.6378   2.8337   2.8338   2.8851   2.8851
     2.9003   2.9004   2.9132   2.9133   3.1232   3.1233   3.2247   3.2247
     3.6487   3.6488   3.7455   3.7457   3.8322   3.8322   3.8433   3.8433
     4.0577   4.0578   4.0683   4.0683   4.1185   4.1186   4.1785   4.1785
     5.0880   5.0880   5.1102   5.1104   5.2771   5.2772   5.3502   5.3502
     5.4330   5.4331   5.4471   5.4472   5.5824   5.5824   5.6721   5.6721

     highest occupied level (ev):     5.7916

!    total energy              =    -493.77803139 Ry
     estimated scf accuracy    <       0.00000040 Ry

     The total energy is the sum of the following terms:
     one-electron contribution =     -16.54657191 Ry
     hartree contribution      =     113.39509082 Ry
     xc contribution           =    -159.72876703 Ry
     ewald contribution        =    -430.89778326 Ry

     convergence has been achieved in  23 iterations

     Forces acting on atoms (cartesian axes, Ry/au):

     atom    1 type  1   force =    -0.23187524   -0.23187524    0.26953936
     atom    2 type  1   force =    -0.23189738   -0.23188091    0.26954542
     atom    3 type  1   force =    -0.23188091   -0.23189738    0.26954542
     atom    4 type  1   force =    -0.23191639   -0.23191639    0.26956803
     atom    5 type  1   force =    -0.23188593   -0.23188593    0.26955265
     atom    6 type  1   force =    -0.23187026   -0.23187473    0.26954047
     atom    7 type  1   force =    -0.23187473   -0.23187026    0.26954047
     atom    8 type  1   force =    -0.23189504   -0.23189504    0.26954908
     atom    9 type  1   force =     0.08928264    0.08928264    0.08928264
     atom   10 type  1   force =     0.08926414    0.08926794    0.08926794
     atom   11 type  1   force =     0.08926794    0.08926414    0.08926794
     atom   12 type  1   force =     0.08924813    0.08924813    0.08925075
     atom   13 type  1   force =     0.08926794    0.08926794    0.08926414
     atom   14 type  1   force =     0.08924813    0.08925075    0.08924813
     atom   15 type  1   force =     0.08925075    0.08924813    0.08924813
     atom   16 type  1   force =     0.08925073    0.08925073    0.08925073
     atom   17 type  1   force =    -0.23187524    0.26953936   -0.23187524
     atom   18 type  1   force =    -0.23189738    0.26954542   -0.23188091
     atom   19 type  1   force =    -0.23188593    0.26955265   -0.23188593
     atom   20 type  1   force =    -0.23187026    0.26954047   -0.23187473
     atom   21 type  1   force =    -0.23188091    0.26954542   -0.23189738
     atom   22 type  1   force =    -0.23191639    0.26956803   -0.23191639
     atom   23 type  1   force =    -0.23187473    0.26954047   -0.23187026
     atom   24 type  1   force =    -0.23189504    0.26954908   -0.23189504
     atom   25 type  1   force =     0.26953936   -0.23187524   -0.23187524
     atom   26 type  1   force =     0.26955265   -0.23188593   -0.23188593
     atom   27 type  1   force =     0.26954542   -0.23189738   -0.23188091
     atom   28 type  1   force =     0.26954047   -0.23187026   -0.23187473
     atom   29 type  1   force =     0.26954542   -0.23188091   -0.23189738
     atom   30 type  1   force =     0.26954047   -0.23187473   -0.23187026
     atom   31 type  1   force =     0.26956803   -0.23191639   -0.23191639
     atom   32 type  1   force =     0.26954908   -0.23189504   -0.23189504
     atom   33 type  1   force =    -0.22127439   -0.22127439    0.33218025
     atom   34 type  1   force =    -0.22127330   -0.22126759    0.33218164
     atom   35 type  1   force =    -0.22126759   -0.22127330    0.33218164
     atom   36 type  1   force =    -0.22125414   -0.22125414    0.33215810
     atom   37 type  1   force =    -0.22126393   -0.22126393    0.33217761
     atom   38 type  1   force =    -0.22126839   -0.22127742    0.33218792
     atom   39 type  1   force =    -0.22127742   -0.22126839    0.33218792
     atom   40 type  1   force =    -0.22127110   -0.22127110    0.33218266
     atom   41 type  1   force =     0.21530159    0.21530159    0.21530159
     atom   42 type  1   force =     0.21533307    0.21531978    0.21531978
     atom   43 type  1   force =     0.21531978    0.21533307    0.21531978
     atom   44 type  1   force =     0.21533791    0.21533791    0.21532741
     atom   45 type  1   force =     0.21531978    0.21531978    0.21533307
     atom   46 type  1   force =     0.21533791    0.21532741    0.21533791
     atom   47 type  1   force =     0.21532741    0.21533791    0.21533791
     atom   48 type  1   force =     0.21531582    0.21531582    0.21531582
     atom   49 type  1   force =    -0.22127439    0.33218025   -0.22127439
     atom   50 type  1   force =    -0.22127330    0.33218164   -0.22126759
     atom   51 type  1   force =    -0.22126393    0.33217761   -0.22126393
     atom   52 type  1   force =    -0.22126839    0.33218792   -0.22127742
     atom   53 type  1   force =    -0.22126759    0.33218164   -0.22127330
     atom   54 type  1   force =    -0.22125414    0.33215810   -0.22125414
     atom   55 type  1   force =    -0.22127742    0.33218792   -0.22126839
     atom   56 type  1   force =    -0.22127110    0.33218266   -0.22127110
     atom   57 type  1   force =     0.33218025   -0.22127439   -0.22127439
     atom   58 type  1   force =     0.33217761   -0.22126393   -0.22126393
     atom   59 type  1   force =     0.33218164   -0.22127330   -0.22126759
     atom   60 type  1   force =     0.33218792   -0.22126839   -0.22127742
     atom   61 type  1   force =     0.33218164   -0.22126759   -0.22127330
     atom   62 type  1   force =     0.33218792   -0.22127742   -0.22126839
     atom   63 type  1   force =     0.33215810   -0.22125414   -0.22125414
     atom   64 type  1   force =     0.33218266   -0.22127110   -0.22127110

     Total force =     3.259917     Total SCF correction =     0.001009


     Computing stress (Cartesian axis) and pressure

          total   stress  (Ry/bohr**3)                   (kbar)     P=      356.80
   0.00242547   0.00008310   0.00008310          356.80       12.22       12.22
   0.00008310   0.00242547   0.00008310           12.22      356.80       12.22
   0.00008310   0.00008310   0.00242547           12.22       12.22      356.80


     Writing all to output data dir ./Si2.save/
 
     init_run     :    174.27s CPU    176.15s WALL (       1 calls)
     electrons    :   6685.98s CPU   6726.84s WALL (       1 calls)
     forces       :     27.47s CPU     27.51s WALL (       1 calls)
     stress       :    267.79s CPU    268.37s WALL (       1 calls)

     Called by init_run:
     wfcinit      :    172.58s CPU    174.17s WALL (       1 calls)
     potinit      :      0.67s CPU      0.79s WALL (       1 calls)
     hinit0       :      0.43s CPU      0.50s WALL (       1 calls)

     Called by electrons:
     c_bands      :   5962.44s CPU   5999.11s WALL (      23 calls)
     sum_band     :    707.28s CPU    710.54s WALL (      23 calls)
     v_of_rho     :     14.96s CPU     15.55s WALL (      24 calls)
     mix_rho      :      1.76s CPU      1.85s WALL (      23 calls)

     Called by c_bands:
     init_us_2    :     68.64s CPU     68.71s WALL (     931 calls)
     init_us_2:cp :     68.60s CPU     68.69s WALL (     931 calls)
     cegterg      :   5834.47s CPU   5870.81s WALL (     437 calls)

     Called by *egterg:
     cdiaghg      :    255.59s CPU    256.74s WALL (    3598 calls)
     h_psi        :   4512.83s CPU   4538.98s WALL (    3617 calls)
     g_psi        :     19.17s CPU     19.28s WALL (    3161 calls)

     Called by h_psi:
     h_psi:calbec :    379.17s CPU    379.36s WALL (    3617 calls)
     vloc_psi     :   3637.18s CPU   3654.92s WALL (    3617 calls)
     add_vuspsi   :    482.00s CPU    482.19s WALL (    3617 calls)

     General routines
     calbec       :    403.78s CPU    404.01s WALL (    3712 calls)
     fft          :      2.44s CPU      2.48s WALL (     247 calls)
     ffts         :      0.23s CPU      0.23s WALL (      23 calls)
     fftw         :   3643.21s CPU   3653.31s WALL (  371594 calls)
 
     Parallel routines
 
     PWSCF        :      1h59m CPU      2h 0m WALL

 
   This run was terminated on:  17:44:47  21Feb2022            

=------------------------------------------------------------------------------=
   JOB DONE.
=------------------------------------------------------------------------------=
