
     Program PWSCF v.7.0 starts on 20Feb2022 at 21:30:25 

     This program is part of the open-source Quantum ESPRESSO suite
     for quantum simulation of materials; please cite
         "P. Giannozzi et al., J. Phys.:Condens. Matter 21 395502 (2009);
         "P. Giannozzi et al., J. Phys.:Condens. Matter 29 465901 (2017);
         "P. Giannozzi et al., J. Chem. Phys. 152 154105 (2020);
          URL http://www.quantum-espresso.org", 
     in publications or presentations arising from this work. More details at
     http://www.quantum-espresso.org/quote

     Parallel version (MPI), running on     1 processors

     MPI processes distributed on     1 nodes
     89136 MiB available memory on the printing compute node when the environment starts
 
     Reading input from Si64.scf.20.in
Warning: card  SI   0.3669964855000001  0.8669964855000001  0.0000000000000000 ignored
Warning: card  SI   0.8669964855000001  0.8669964855000001  0.0000000000000000 ignored
Warning: card  SI   0.3669964855000001  0.3669964855000001  0.5000000000000000 ignored
Warning: card  SI   0.8669964855000001  0.3669964855000001  0.5000000000000000 ignored
Warning: card  SI   0.3669964855000001  0.8669964855000001  0.5000000000000000 ignored
Warning: card  SI   0.8669964855000001  0.8669964855000001  0.5000000000000000 ignored
Warning: card  SI   0.0000000000000000  0.0000000000000000  0.0000000000000000 ignored
Warning: card  SI   0.5000000000000000  0.0000000000000000  0.0000000000000000 ignored
Warning: card  SI   0.0000000000000000  0.5000000000000000  0.0000000000000000 ignored
Warning: card  SI   0.5000000000000000  0.5000000000000000  0.0000000000000000 ignored
Warning: card  SI   0.0000000000000000  0.0000000000000000  0.5000000000000000 ignored
Warning: card  SI   0.5000000000000000  0.0000000000000000  0.5000000000000000 ignored
Warning: card  SI   0.0000000000000000  0.5000000000000000  0.5000000000000000 ignored
Warning: card  SI   0.5000000000000000  0.5000000000000000  0.5000000000000000 ignored
Warning: card  SI   0.3669964855000001  0.0000000000000000  0.3669964855000001 ignored
Warning: card  SI   0.8669964855000001  0.0000000000000000  0.3669964855000001 ignored
Warning: card  SI   0.3669964855000001  0.5000000000000000  0.3669964855000001 ignored
Warning: card  SI   0.8669964855000001  0.5000000000000000  0.3669964855000001 ignored
Warning: card  SI   0.3669964855000001  0.0000000000000000  0.8669964855000001 ignored
Warning: card  SI   0.8669964855000001  0.0000000000000000  0.8669964855000001 ignored
Warning: card  SI   0.3669964855000001  0.5000000000000000  0.8669964855000001 ignored
Warning: card  SI   0.8669964855000001  0.5000000000000000  0.8669964855000001 ignored
Warning: card  SI   0.0000000000000000  0.3669964855000001  0.3669964855000001 ignored
Warning: card  SI   0.5000000000000000  0.3669964855000001  0.3669964855000001 ignored
Warning: card  SI   0.0000000000000000  0.8669964855000001  0.3669964855000001 ignored
Warning: card  SI   0.5000000000000000  0.8669964855000001  0.3669964855000001 ignored
Warning: card  SI   0.0000000000000000  0.3669964855000001  0.8669964855000001 ignored
Warning: card  SI   0.5000000000000000  0.3669964855000001  0.8669964855000001 ignored
Warning: card  SI   0.0000000000000000  0.8669964855000001  0.8669964855000001 ignored
Warning: card  SI   0.5000000000000000  0.8669964855000001  0.8669964855000001 ignored
Warning: card  SI   0.0504947279999999  0.0504947279999999  0.6834982425000000 ignored
Warning: card  SI   0.5504947279999999  0.0504947279999999  0.6834982425000000 ignored
Warning: card  SI   0.0504947279999999  0.5504947279999999  0.6834982425000000 ignored
Warning: card  SI   0.5504947279999999  0.5504947279999999  0.6834982425000000 ignored
Warning: card  SI   0.0504947279999999  0.0504947279999999  0.1834982425000000 ignored
Warning: card  SI   0.5504947279999999  0.0504947279999999  0.1834982425000000 ignored
Warning: card  SI   0.0504947279999999  0.5504947279999999  0.1834982425000000 ignored
Warning: card  SI   0.5504947279999999  0.5504947279999999  0.1834982425000000 ignored
Warning: card  SI   0.6834982425000000  0.6834982425000000  0.6834982425000000 ignored
Warning: card  SI   0.1834982425000000  0.6834982425000000  0.6834982425000000 ignored
Warning: card  SI   0.6834982425000000  0.1834982425000000  0.6834982425000000 ignored
Warning: card  SI   0.1834982425000000  0.1834982425000000  0.6834982425000000 ignored
Warning: card  SI   0.6834982425000000  0.6834982425000000  0.1834982425000000 ignored
Warning: card  SI   0.1834982425000000  0.6834982425000000  0.1834982425000000 ignored
Warning: card  SI   0.6834982425000000  0.1834982425000000  0.1834982425000000 ignored
Warning: card  SI   0.1834982425000000  0.1834982425000000  0.1834982425000000 ignored
Warning: card  SI   0.0504947279999999  0.6834982425000000  0.0504947279999999 ignored
Warning: card  SI   0.5504947279999999  0.6834982425000000  0.0504947279999999 ignored
Warning: card  SI   0.0504947279999999  0.1834982425000000  0.0504947279999999 ignored
Warning: card  SI   0.5504947279999999  0.1834982425000000  0.0504947279999999 ignored
Warning: card  SI   0.0504947279999999  0.6834982425000000  0.5504947279999999 ignored
Warning: card  SI   0.5504947279999999  0.6834982425000000  0.5504947279999999 ignored
Warning: card  SI   0.0504947279999999  0.1834982425000000  0.5504947279999999 ignored
Warning: card  SI   0.5504947279999999  0.1834982425000000  0.5504947279999999 ignored
Warning: card  SI   0.6834982425000000  0.0504947279999999  0.0504947279999999 ignored
Warning: card  SI   0.1834982425000000  0.0504947279999999  0.0504947279999999 ignored
Warning: card  SI   0.6834982425000000  0.5504947279999999  0.0504947279999999 ignored
Warning: card  SI   0.1834982425000000  0.5504947279999999  0.0504947279999999 ignored
Warning: card  SI   0.6834982425000000  0.0504947279999999  0.5504947279999999 ignored
Warning: card  SI   0.1834982425000000  0.0504947279999999  0.5504947279999999 ignored
Warning: card  SI   0.6834982425000000  0.5504947279999999  0.5504947279999999 ignored
Warning: card  SI   0.1834982425000000  0.5504947279999999  0.5504947279999999 ignored

     Current dimensions of program PWSCF are:
     Max number of different atomic species (ntypx) = 10
     Max number of k-points (npk) =  40000
     Max angular momentum in pseudopotentials (lmaxx) =  4
     Found identity + ( -0.5000  0.0000  0.0000) symmetry
     This is a supercell, fractional translations are disabled

     Subspace diagonalization in iterative solution of the eigenvalue problem:
     a serial algorithm will be used

 
     G-vector sticks info
     --------------------
     sticks:   dense  smooth     PW     G-vecs:    dense   smooth      PW
     Sum         301     301    109                 3383     3383     725
 
     Using Slab Decomposition
 


     bravais-lattice index     =            2
     lattice parameter (alat)  =      10.3330  a.u.
     unit-cell volume          =     275.8159 (a.u.)^3
     number of atoms/cell      =            2
     number of atomic types    =            1
     number of electrons       =         8.00
     number of Kohn-Sham states=            4
     kinetic-energy cutoff     =      20.0000  Ry
     charge density cutoff     =      80.0000  Ry
     scf convergence threshold =      1.0E-06
     mixing beta               =       0.7000
     number of iterations used =            8  plain     mixing
     Exchange-correlation=  SLA  PW   PBE  PBE
                           (   1   4   3   4   0   0   0)

     celldm(1)=  10.333000  celldm(2)=   0.000000  celldm(3)=   0.000000
     celldm(4)=   0.000000  celldm(5)=   0.000000  celldm(6)=   0.000000

     crystal axes: (cart. coord. in units of alat)
               a(1) = (  -0.500000   0.000000   0.500000 )  
               a(2) = (   0.000000   0.500000   0.500000 )  
               a(3) = (  -0.500000   0.500000   0.000000 )  

     reciprocal axes: (cart. coord. in units 2 pi/alat)
               b(1) = ( -1.000000 -1.000000  1.000000 )  
               b(2) = (  1.000000  1.000000  1.000000 )  
               b(3) = ( -1.000000  1.000000 -1.000000 )  


     PseudoPot. # 1 for Si read from file:
     ../Si.pbe-rrkj.UPF
     MD5 check sum: cf7ab5690cd9a85b22c4813f7e365554
     Pseudo is Norm-conserving, Zval =  4.0
     Generated by new atomic code, or converted to UPF format
     Using radial grid of  883 points,  3 beta functions with: 
                l(1) =   0
                l(2) =   0
                l(3) =   1

     atomic species   valence    mass     pseudopotential
        Si             4.00    28.08600     Si( 1.00)

     No symmetry found



   Cartesian axes

     site n.     atom                  positions (alat units)
         1           Si  tau(   1) = (  -0.1834982   0.1834982   0.3669965  )
         2           Si  tau(   2) = (  -0.4334982   0.1834982   0.6169965  )

     number of k points=   432

     Number of k-points >= 100: set verbosity='high' to print them.

     Dense  grid:     3383 G-vectors     FFT dimensions: (  24,  24,  24)

     Estimated max dynamical RAM per process >      13.67 MB

     Initial potential from superposition of free atoms

     starting charge       7.9989, renormalised to       8.0000
     Starting wfcs are    8 randomized atomic wfcs

     total cpu time spent up to now is        3.4 secs

     Self-consistent Calculation

     iteration #  1     ecut=    20.00 Ry     beta= 0.70
     Davidson diagonalization with overlap
     ethr =  1.00E-02,  avg # of iterations =  2.0

     Threshold (ethr) on eigenvalues was too large:
     Diagonalizing with lowered threshold

     Davidson diagonalization with overlap
     ethr =  8.10E-04,  avg # of iterations =  2.9

     total cpu time spent up to now is       13.8 secs

     total energy              =     -15.37893561 Ry
     estimated scf accuracy    <       0.10032073 Ry

     iteration #  2     ecut=    20.00 Ry     beta= 0.70
     Davidson diagonalization with overlap
     ethr =  1.25E-03,  avg # of iterations =  1.9

     total cpu time spent up to now is       18.3 secs

     total energy              =     -15.38812868 Ry
     estimated scf accuracy    <       0.00229391 Ry

     iteration #  3     ecut=    20.00 Ry     beta= 0.70
     Davidson diagonalization with overlap
     c_bands:  1 eigenvalues not converged
     c_bands:  1 eigenvalues not converged
     c_bands:  1 eigenvalues not converged
     c_bands:  1 eigenvalues not converged
     ethr =  2.87E-05,  avg # of iterations =  3.9

     total cpu time spent up to now is       24.7 secs

     total energy              =     -15.38944690 Ry
     estimated scf accuracy    <       0.00019634 Ry

     iteration #  4     ecut=    20.00 Ry     beta= 0.70
     Davidson diagonalization with overlap
     c_bands:  1 eigenvalues not converged
     c_bands:  1 eigenvalues not converged
     c_bands:  1 eigenvalues not converged
     c_bands:  1 eigenvalues not converged
     c_bands:  1 eigenvalues not converged
     c_bands:  1 eigenvalues not converged
     ethr =  2.45E-06,  avg # of iterations =  3.2

     total cpu time spent up to now is       30.7 secs

     total energy              =     -15.39192329 Ry
     estimated scf accuracy    <       0.00002330 Ry

     iteration #  5     ecut=    20.00 Ry     beta= 0.70
     Davidson diagonalization with overlap
     c_bands:  1 eigenvalues not converged
     c_bands:  1 eigenvalues not converged
     c_bands:  1 eigenvalues not converged
     c_bands:  1 eigenvalues not converged
     c_bands:  1 eigenvalues not converged
     c_bands:  1 eigenvalues not converged
     c_bands:  1 eigenvalues not converged
     c_bands:  1 eigenvalues not converged
     c_bands:  1 eigenvalues not converged
     c_bands:  1 eigenvalues not converged
     c_bands:  1 eigenvalues not converged
     c_bands:  1 eigenvalues not converged
     c_bands:  1 eigenvalues not converged
     c_bands:  1 eigenvalues not converged
     ethr =  2.91E-07,  avg # of iterations =  3.9

     total cpu time spent up to now is       36.8 secs

     total energy              =     -15.39233399 Ry
     estimated scf accuracy    <       0.00000927 Ry

     iteration #  6     ecut=    20.00 Ry     beta= 0.70
     Davidson diagonalization with overlap
     c_bands:  1 eigenvalues not converged
     c_bands:  1 eigenvalues not converged
     c_bands:  1 eigenvalues not converged
     c_bands:  1 eigenvalues not converged
     c_bands:  1 eigenvalues not converged
     c_bands:  1 eigenvalues not converged
     c_bands:  1 eigenvalues not converged
     c_bands:  1 eigenvalues not converged
     c_bands:  1 eigenvalues not converged
     ethr =  1.16E-07,  avg # of iterations =  2.2

     total cpu time spent up to now is       41.4 secs

     total energy              =     -15.39256506 Ry
     estimated scf accuracy    <       0.00001117 Ry

     iteration #  7     ecut=    20.00 Ry     beta= 0.70
     Davidson diagonalization with overlap
     c_bands:  1 eigenvalues not converged
     c_bands:  1 eigenvalues not converged
     c_bands:  1 eigenvalues not converged
     c_bands:  1 eigenvalues not converged
     ethr =  1.16E-07,  avg # of iterations =  1.5

     total cpu time spent up to now is       45.5 secs

     total energy              =     -15.39260390 Ry
     estimated scf accuracy    <       0.00000377 Ry

     iteration #  8     ecut=    20.00 Ry     beta= 0.70
     Davidson diagonalization with overlap
     c_bands:  1 eigenvalues not converged
     c_bands:  1 eigenvalues not converged
     c_bands:  1 eigenvalues not converged
     c_bands:  1 eigenvalues not converged
     c_bands:  1 eigenvalues not converged
     ethr =  4.72E-08,  avg # of iterations =  3.0

     total cpu time spent up to now is       50.7 secs

     total energy              =     -15.39262702 Ry
     estimated scf accuracy    <       0.00000182 Ry

     iteration #  9     ecut=    20.00 Ry     beta= 0.70
     Davidson diagonalization with overlap
     c_bands:  1 eigenvalues not converged
     c_bands:  1 eigenvalues not converged
     c_bands:  1 eigenvalues not converged
     c_bands:  1 eigenvalues not converged
     c_bands:  1 eigenvalues not converged
     ethr =  2.27E-08,  avg # of iterations =  1.5

     total cpu time spent up to now is       54.8 secs

     total energy              =     -15.39263247 Ry
     estimated scf accuracy    <       0.00000181 Ry

     iteration # 10     ecut=    20.00 Ry     beta= 0.70
     Davidson diagonalization with overlap
     c_bands:  1 eigenvalues not converged
     c_bands:  1 eigenvalues not converged
     c_bands:  1 eigenvalues not converged
     c_bands:  1 eigenvalues not converged
     c_bands:  1 eigenvalues not converged
     ethr =  2.26E-08,  avg # of iterations =  1.2

     total cpu time spent up to now is       58.8 secs

     total energy              =     -15.39264102 Ry
     estimated scf accuracy    <       0.00000342 Ry

     iteration # 11     ecut=    20.00 Ry     beta= 0.70
     Davidson diagonalization with overlap
     c_bands:  1 eigenvalues not converged
     c_bands:  1 eigenvalues not converged
     c_bands:  1 eigenvalues not converged
     ethr =  2.26E-08,  avg # of iterations =  3.3

     total cpu time spent up to now is       64.8 secs

     total energy              =     -15.39267768 Ry
     estimated scf accuracy    <       0.00000231 Ry

     iteration # 12     ecut=    20.00 Ry     beta= 0.70
     Davidson diagonalization with overlap
     c_bands:  1 eigenvalues not converged
     c_bands:  1 eigenvalues not converged
     ethr =  2.26E-08,  avg # of iterations =  1.1

     total cpu time spent up to now is       68.7 secs

     total energy              =     -15.39267970 Ry
     estimated scf accuracy    <       0.00000172 Ry

     iteration # 13     ecut=    20.00 Ry     beta= 0.70
     Davidson diagonalization with overlap
     c_bands:  1 eigenvalues not converged
     ethr =  2.15E-08,  avg # of iterations =  1.9

     total cpu time spent up to now is       73.1 secs

     total energy              =     -15.39267921 Ry
     estimated scf accuracy    <       0.00000399 Ry

     iteration # 14     ecut=    20.00 Ry     beta= 0.70
     Davidson diagonalization with overlap
     ethr =  2.15E-08,  avg # of iterations =  1.0

     total cpu time spent up to now is       76.9 secs

     total energy              =     -15.39267833 Ry
     estimated scf accuracy    <       0.00000185 Ry

     iteration # 15     ecut=    20.00 Ry     beta= 0.70
     Davidson diagonalization with overlap
     c_bands:  1 eigenvalues not converged
     c_bands:  1 eigenvalues not converged
     c_bands:  1 eigenvalues not converged
     c_bands:  1 eigenvalues not converged
     c_bands:  1 eigenvalues not converged
     c_bands:  1 eigenvalues not converged
     c_bands:  1 eigenvalues not converged
     c_bands:  1 eigenvalues not converged
     c_bands:  1 eigenvalues not converged
     ethr =  2.15E-08,  avg # of iterations =  6.0

     total cpu time spent up to now is       84.8 secs

     total energy              =     -15.39267977 Ry
     estimated scf accuracy    <       0.00000672 Ry

     iteration # 16     ecut=    20.00 Ry     beta= 0.70
     Davidson diagonalization with overlap
     ethr =  2.15E-08,  avg # of iterations =  1.1

     total cpu time spent up to now is       88.7 secs

     total energy              =     -15.39267843 Ry
     estimated scf accuracy    <       0.00000432 Ry

     iteration # 17     ecut=    20.00 Ry     beta= 0.70
     Davidson diagonalization with overlap
     ethr =  2.15E-08,  avg # of iterations =  2.8

     total cpu time spent up to now is       94.4 secs

     End of self-consistent calculation

     Number of k-points >= 100: set verbosity='high' to print the bands.

     highest occupied level (ev):     6.8722

!    total energy              =     -15.39267857 Ry
     estimated scf accuracy    <       0.00000047 Ry

     The total energy is the sum of the following terms:
     one-electron contribution =       4.16487522 Ry
     hartree contribution      =       1.27004244 Ry
     xc contribution           =      -4.82485980 Ry
     ewald contribution        =     -16.00273642 Ry

     convergence has been achieved in  17 iterations

     Forces acting on atoms (cartesian axes, Ry/au):

     atom    1 type  1   force =     0.00034502   -0.00000389   -0.00034778
     atom    2 type  1   force =    -0.00034502    0.00000389    0.00034778

     Total force =     0.000693     Total SCF correction =     0.000439
     SCF correction compared to forces is large: reduce conv_thr to get better values


     Computing stress (Cartesian axis) and pressure

          total   stress  (Ry/bohr**3)                   (kbar)     P=      248.22
   0.00250971   0.00000009  -0.00224537          369.19        0.01     -330.30
   0.00000009   0.00004268   0.00000012            0.01        6.28        0.02
  -0.00224537   0.00000012   0.00250973         -330.30        0.02      369.19


     Writing all to output data dir ./Si2.save/
 
     init_run     :      3.00s CPU      3.15s WALL (       1 calls)
     electrons    :     85.49s CPU     90.93s WALL (       1 calls)
     forces       :      0.20s CPU      0.22s WALL (       1 calls)
     stress       :      1.54s CPU      1.56s WALL (       1 calls)

     Called by init_run:
     wfcinit      :      2.82s CPU      2.94s WALL (       1 calls)
     potinit      :      0.02s CPU      0.03s WALL (       1 calls)
     hinit0       :      0.11s CPU      0.13s WALL (       1 calls)

     Called by electrons:
     c_bands      :     73.98s CPU     78.96s WALL (      18 calls)
     sum_band     :     11.14s CPU     11.58s WALL (      18 calls)
     v_of_rho     :      0.34s CPU      0.35s WALL (      18 calls)
     mix_rho      :      0.03s CPU      0.03s WALL (      18 calls)

     Called by c_bands:
     init_us_2    :      3.97s CPU      4.50s WALL (   16848 calls)
     init_us_2:cp :      3.73s CPU      4.26s WALL (   16848 calls)
     cegterg      :     69.87s CPU     73.70s WALL (    7776 calls)

     Called by *egterg:
     cdiaghg      :      7.16s CPU      7.67s WALL (   26531 calls)
     h_psi        :     57.09s CPU     59.94s WALL (   27395 calls)
     g_psi        :      0.32s CPU      0.35s WALL (   19187 calls)

     Called by h_psi:
     h_psi:calbec :      2.37s CPU      2.47s WALL (   27395 calls)
     vloc_psi     :     52.22s CPU     54.79s WALL (   27395 calls)
     add_vuspsi   :      1.15s CPU      1.24s WALL (   27395 calls)

     General routines
     calbec       :      2.02s CPU      2.15s WALL (   29555 calls)
     fft          :      0.06s CPU      0.08s WALL (     188 calls)
     ffts         :      0.01s CPU      0.01s WALL (      18 calls)
     fftw         :     53.02s CPU     55.63s WALL (  204654 calls)
 
     Parallel routines
 
     PWSCF        :   1m30.90s CPU   1m38.97s WALL

 
   This run was terminated on:  21:32: 4  20Feb2022            

=------------------------------------------------------------------------------=
   JOB DONE.
=------------------------------------------------------------------------------=
