
     Program PWSCF v.7.0 starts on 21Feb2022 at 13:40:59 

     This program is part of the open-source Quantum ESPRESSO suite
     for quantum simulation of materials; please cite
         "P. Giannozzi et al., J. Phys.:Condens. Matter 21 395502 (2009);
         "P. Giannozzi et al., J. Phys.:Condens. Matter 29 465901 (2017);
         "P. Giannozzi et al., J. Chem. Phys. 152 154105 (2020);
          URL http://www.quantum-espresso.org", 
     in publications or presentations arising from this work. More details at
     http://www.quantum-espresso.org/quote

     Parallel version (MPI), running on     1 processors

     MPI processes distributed on     1 nodes
     86261 MiB available memory on the printing compute node when the environment starts
 
     Reading input from Si64.scf.kpoint.3.in

     Current dimensions of program PWSCF are:
     Max number of different atomic species (ntypx) = 10
     Max number of k-points (npk) =  40000
     Max angular momentum in pseudopotentials (lmaxx) =  4
     Found identity + ( -0.5000  0.0000  0.0000) symmetry
     This is a supercell, fractional translations are disabled
     Message from routine setup:
     using ibrav=0 with symmetry is DISCOURAGED, use correct ibrav instead

     Subspace diagonalization in iterative solution of the eigenvalue problem:
     a serial algorithm will be used

 
     G-vector sticks info
     --------------------
     sticks:   dense  smooth     PW     G-vecs:    dense   smooth      PW
     Sum        4061    4061   1117               195797   195797   28257
 
     Using Slab Decomposition
 


     bravais-lattice index     =            0
     lattice parameter (alat)  =      20.6660  a.u.
     unit-cell volume          =    8826.0984 (a.u.)^3
     number of atoms/cell      =           64
     number of atomic types    =            1
     number of electrons       =       256.00
     number of Kohn-Sham states=          128
     kinetic-energy cutoff     =      30.0000  Ry
     charge density cutoff     =     120.0000  Ry
     scf convergence threshold =      1.0E-06
     mixing beta               =       0.7000
     number of iterations used =            8  plain     mixing
     Exchange-correlation=  SLA  PW   PBE  PBE
                           (   1   4   3   4   0   0   0)

     celldm(1)=  20.665992  celldm(2)=   0.000000  celldm(3)=   0.000000
     celldm(4)=   0.000000  celldm(5)=   0.000000  celldm(6)=   0.000000

     crystal axes: (cart. coord. in units of alat)
               a(1) = (   1.000000   0.000000   0.000000 )  
               a(2) = (   0.000000   1.000000   0.000000 )  
               a(3) = (   0.000000   0.000000   1.000000 )  

     reciprocal axes: (cart. coord. in units 2 pi/alat)
               b(1) = (  1.000000  0.000000  0.000000 )  
               b(2) = (  0.000000  1.000000  0.000000 )  
               b(3) = (  0.000000  0.000000  1.000000 )  


     PseudoPot. # 1 for Si read from file:
     ../Si.pbe-rrkj.UPF
     MD5 check sum: cf7ab5690cd9a85b22c4813f7e365554
     Pseudo is Norm-conserving, Zval =  4.0
     Generated by new atomic code, or converted to UPF format
     Using radial grid of  883 points,  3 beta functions with: 
                l(1) =   0
                l(2) =   0
                l(3) =   1

     atomic species   valence    mass     pseudopotential
        Si             4.00    28.08600     Si( 1.00)

      6 Sym. Ops. (no inversion) found



   Cartesian axes

     site n.     atom                  positions (alat units)
         1           Si  tau(   1) = (   0.3669965   0.3669965   0.0000000  )
         2           Si  tau(   2) = (   0.8669965   0.3669965   0.0000000  )
         3           Si  tau(   3) = (   0.3669965   0.8669965   0.0000000  )
         4           Si  tau(   4) = (   0.8669965   0.8669965   0.0000000  )
         5           Si  tau(   5) = (   0.3669965   0.3669965   0.5000000  )
         6           Si  tau(   6) = (   0.8669965   0.3669965   0.5000000  )
         7           Si  tau(   7) = (   0.3669965   0.8669965   0.5000000  )
         8           Si  tau(   8) = (   0.8669965   0.8669965   0.5000000  )
         9           Si  tau(   9) = (   0.0000000   0.0000000   0.0000000  )
        10           Si  tau(  10) = (   0.5000000   0.0000000   0.0000000  )
        11           Si  tau(  11) = (   0.0000000   0.5000000   0.0000000  )
        12           Si  tau(  12) = (   0.5000000   0.5000000   0.0000000  )
        13           Si  tau(  13) = (   0.0000000   0.0000000   0.5000000  )
        14           Si  tau(  14) = (   0.5000000   0.0000000   0.5000000  )
        15           Si  tau(  15) = (   0.0000000   0.5000000   0.5000000  )
        16           Si  tau(  16) = (   0.5000000   0.5000000   0.5000000  )
        17           Si  tau(  17) = (   0.3669965   0.0000000   0.3669965  )
        18           Si  tau(  18) = (   0.8669965   0.0000000   0.3669965  )
        19           Si  tau(  19) = (   0.3669965   0.5000000   0.3669965  )
        20           Si  tau(  20) = (   0.8669965   0.5000000   0.3669965  )
        21           Si  tau(  21) = (   0.3669965   0.0000000   0.8669965  )
        22           Si  tau(  22) = (   0.8669965   0.0000000   0.8669965  )
        23           Si  tau(  23) = (   0.3669965   0.5000000   0.8669965  )
        24           Si  tau(  24) = (   0.8669965   0.5000000   0.8669965  )
        25           Si  tau(  25) = (   0.0000000   0.3669965   0.3669965  )
        26           Si  tau(  26) = (   0.5000000   0.3669965   0.3669965  )
        27           Si  tau(  27) = (   0.0000000   0.8669965   0.3669965  )
        28           Si  tau(  28) = (   0.5000000   0.8669965   0.3669965  )
        29           Si  tau(  29) = (   0.0000000   0.3669965   0.8669965  )
        30           Si  tau(  30) = (   0.5000000   0.3669965   0.8669965  )
        31           Si  tau(  31) = (   0.0000000   0.8669965   0.8669965  )
        32           Si  tau(  32) = (   0.5000000   0.8669965   0.8669965  )
        33           Si  tau(  33) = (   0.0504947   0.0504947   0.6834982  )
        34           Si  tau(  34) = (   0.5504947   0.0504947   0.6834982  )
        35           Si  tau(  35) = (   0.0504947   0.5504947   0.6834982  )
        36           Si  tau(  36) = (   0.5504947   0.5504947   0.6834982  )
        37           Si  tau(  37) = (   0.0504947   0.0504947   0.1834982  )
        38           Si  tau(  38) = (   0.5504947   0.0504947   0.1834982  )
        39           Si  tau(  39) = (   0.0504947   0.5504947   0.1834982  )
        40           Si  tau(  40) = (   0.5504947   0.5504947   0.1834982  )
        41           Si  tau(  41) = (   0.6834982   0.6834982   0.6834982  )
        42           Si  tau(  42) = (   0.1834982   0.6834982   0.6834982  )
        43           Si  tau(  43) = (   0.6834982   0.1834982   0.6834982  )
        44           Si  tau(  44) = (   0.1834982   0.1834982   0.6834982  )
        45           Si  tau(  45) = (   0.6834982   0.6834982   0.1834982  )
        46           Si  tau(  46) = (   0.1834982   0.6834982   0.1834982  )
        47           Si  tau(  47) = (   0.6834982   0.1834982   0.1834982  )
        48           Si  tau(  48) = (   0.1834982   0.1834982   0.1834982  )
        49           Si  tau(  49) = (   0.0504947   0.6834982   0.0504947  )
        50           Si  tau(  50) = (   0.5504947   0.6834982   0.0504947  )
        51           Si  tau(  51) = (   0.0504947   0.1834982   0.0504947  )
        52           Si  tau(  52) = (   0.5504947   0.1834982   0.0504947  )
        53           Si  tau(  53) = (   0.0504947   0.6834982   0.5504947  )
        54           Si  tau(  54) = (   0.5504947   0.6834982   0.5504947  )
        55           Si  tau(  55) = (   0.0504947   0.1834982   0.5504947  )
        56           Si  tau(  56) = (   0.5504947   0.1834982   0.5504947  )
        57           Si  tau(  57) = (   0.6834982   0.0504947   0.0504947  )
        58           Si  tau(  58) = (   0.1834982   0.0504947   0.0504947  )
        59           Si  tau(  59) = (   0.6834982   0.5504947   0.0504947  )
        60           Si  tau(  60) = (   0.1834982   0.5504947   0.0504947  )
        61           Si  tau(  61) = (   0.6834982   0.0504947   0.5504947  )
        62           Si  tau(  62) = (   0.1834982   0.0504947   0.5504947  )
        63           Si  tau(  63) = (   0.6834982   0.5504947   0.5504947  )
        64           Si  tau(  64) = (   0.1834982   0.5504947   0.5504947  )

     number of k points=     6
                       cart. coord. in units 2pi/alat
        k(    1) = (   0.1666667   0.1666667   0.1666667), wk =   0.1481481
        k(    2) = (   0.1666667   0.1666667  -0.5000000), wk =   0.4444444
        k(    3) = (   0.1666667  -0.5000000  -0.5000000), wk =   0.4444444
        k(    4) = (  -0.5000000  -0.5000000  -0.5000000), wk =   0.0740741
        k(    5) = (   0.1666667  -0.1666667   0.1666667), wk =   0.4444444
        k(    6) = (   0.1666667  -0.1666667  -0.5000000), wk =   0.4444444

     Dense  grid:   195797 G-vectors     FFT dimensions: (  75,  75,  75)

     Estimated max dynamical RAM per process >     759.92 MB

     Initial potential from superposition of free atoms

     starting charge     255.9646, renormalised to     256.0000
     Starting wfcs are  256 randomized atomic wfcs

     total cpu time spent up to now is       57.2 secs

     Self-consistent Calculation

     iteration #  1     ecut=    30.00 Ry     beta= 0.70
     Davidson diagonalization with overlap
     ethr =  1.00E-02,  avg # of iterations =  3.0

     total cpu time spent up to now is      161.8 secs

     total energy              =    -491.28032361 Ry
     estimated scf accuracy    <       6.73600146 Ry

     iteration #  2     ecut=    30.00 Ry     beta= 0.70
     Davidson diagonalization with overlap
     ethr =  2.63E-03,  avg # of iterations =  3.0

     total cpu time spent up to now is      262.4 secs

     total energy              =    -493.13488850 Ry
     estimated scf accuracy    <       2.20398252 Ry

     iteration #  3     ecut=    30.00 Ry     beta= 0.70
     Davidson diagonalization with overlap
     ethr =  8.61E-04,  avg # of iterations =  7.2

     total cpu time spent up to now is      362.4 secs

     total energy              =    -493.68271097 Ry
     estimated scf accuracy    <       0.08004654 Ry

     iteration #  4     ecut=    30.00 Ry     beta= 0.70
     Davidson diagonalization with overlap
     ethr =  3.13E-05,  avg # of iterations = 13.3

     total cpu time spent up to now is      515.1 secs

     total energy              =    -493.76290033 Ry
     estimated scf accuracy    <       0.04289529 Ry

     iteration #  5     ecut=    30.00 Ry     beta= 0.70
     Davidson diagonalization with overlap
     ethr =  1.68E-05,  avg # of iterations =  9.8

     total cpu time spent up to now is      624.3 secs

     total energy              =    -493.76249593 Ry
     estimated scf accuracy    <       0.05987809 Ry

     iteration #  6     ecut=    30.00 Ry     beta= 0.70
     Davidson diagonalization with overlap
     ethr =  1.68E-05,  avg # of iterations = 11.5

     total cpu time spent up to now is      735.7 secs

     total energy              =    -493.76800951 Ry
     estimated scf accuracy    <       0.06502460 Ry

     iteration #  7     ecut=    30.00 Ry     beta= 0.70
     Davidson diagonalization with overlap
     ethr =  1.68E-05,  avg # of iterations =  8.5

     total cpu time spent up to now is      825.3 secs

     total energy              =    -493.77179484 Ry
     estimated scf accuracy    <       0.00994832 Ry

     iteration #  8     ecut=    30.00 Ry     beta= 0.70
     Davidson diagonalization with overlap
     ethr =  3.89E-06,  avg # of iterations =  6.0

     total cpu time spent up to now is      923.9 secs

     total energy              =    -493.77327851 Ry
     estimated scf accuracy    <       0.00566892 Ry

     iteration #  9     ecut=    30.00 Ry     beta= 0.70
     Davidson diagonalization with overlap
     ethr =  2.21E-06,  avg # of iterations =  3.3

     total cpu time spent up to now is     1007.0 secs

     total energy              =    -493.77399862 Ry
     estimated scf accuracy    <       0.00112537 Ry

     iteration # 10     ecut=    30.00 Ry     beta= 0.70
     Davidson diagonalization with overlap
     ethr =  4.40E-07,  avg # of iterations =  8.3

     total cpu time spent up to now is     1107.1 secs

     total energy              =    -493.77406409 Ry
     estimated scf accuracy    <       0.00109632 Ry

     iteration # 11     ecut=    30.00 Ry     beta= 0.70
     Davidson diagonalization with overlap
     ethr =  4.28E-07,  avg # of iterations =  2.7

     total cpu time spent up to now is     1176.4 secs

     total energy              =    -493.77405745 Ry
     estimated scf accuracy    <       0.00049372 Ry

     iteration # 12     ecut=    30.00 Ry     beta= 0.70
     Davidson diagonalization with overlap
     ethr =  1.93E-07,  avg # of iterations =  8.5

     total cpu time spent up to now is     1265.1 secs

     total energy              =    -493.77412155 Ry
     estimated scf accuracy    <       0.00004348 Ry

     iteration # 13     ecut=    30.00 Ry     beta= 0.70
     Davidson diagonalization with overlap
     ethr =  1.70E-08,  avg # of iterations = 12.8

     total cpu time spent up to now is     1397.5 secs

     total energy              =    -493.77413682 Ry
     estimated scf accuracy    <       0.00015235 Ry

     iteration # 14     ecut=    30.00 Ry     beta= 0.70
     Davidson diagonalization with overlap
     ethr =  1.70E-08,  avg # of iterations =  3.8

     total cpu time spent up to now is     1469.4 secs

     total energy              =    -493.77413208 Ry
     estimated scf accuracy    <       0.00009398 Ry

     iteration # 15     ecut=    30.00 Ry     beta= 0.70
     Davidson diagonalization with overlap
     ethr =  1.70E-08,  avg # of iterations =  8.2

     total cpu time spent up to now is     1551.8 secs

     total energy              =    -493.77413582 Ry
     estimated scf accuracy    <       0.00001294 Ry

     iteration # 16     ecut=    30.00 Ry     beta= 0.70
     Davidson diagonalization with overlap
     ethr =  5.06E-09,  avg # of iterations =  6.8

     total cpu time spent up to now is     1636.2 secs

     total energy              =    -493.77413677 Ry
     estimated scf accuracy    <       0.00000242 Ry

     iteration # 17     ecut=    30.00 Ry     beta= 0.70
     Davidson diagonalization with overlap
     ethr =  9.45E-10,  avg # of iterations = 13.3

     total cpu time spent up to now is     1756.1 secs

     total energy              =    -493.77413785 Ry
     estimated scf accuracy    <       0.00000198 Ry

     iteration # 18     ecut=    30.00 Ry     beta= 0.70
     Davidson diagonalization with overlap
     ethr =  7.73E-10,  avg # of iterations =  3.2

     total cpu time spent up to now is     1827.1 secs

     total energy              =    -493.77413776 Ry
     estimated scf accuracy    <       0.00000269 Ry

     iteration # 19     ecut=    30.00 Ry     beta= 0.70
     Davidson diagonalization with overlap
     ethr =  7.73E-10,  avg # of iterations =  1.3

     total cpu time spent up to now is     1890.2 secs

     total energy              =    -493.77413770 Ry
     estimated scf accuracy    <       0.00000224 Ry

     iteration # 20     ecut=    30.00 Ry     beta= 0.70
     Davidson diagonalization with overlap
     ethr =  7.73E-10,  avg # of iterations =  1.2

     total cpu time spent up to now is     1952.9 secs

     total energy              =    -493.77413762 Ry
     estimated scf accuracy    <       0.00000180 Ry

     iteration # 21     ecut=    30.00 Ry     beta= 0.70
     Davidson diagonalization with overlap
     ethr =  7.03E-10,  avg # of iterations =  1.5

     total cpu time spent up to now is     2016.8 secs

     total energy              =    -493.77413762 Ry
     estimated scf accuracy    <       0.00000129 Ry

     iteration # 22     ecut=    30.00 Ry     beta= 0.70
     Davidson diagonalization with overlap
     ethr =  5.05E-10,  avg # of iterations =  4.8

     total cpu time spent up to now is     2085.4 secs

     End of self-consistent calculation

          k = 0.1667 0.1667 0.1667 ( 24483 PWs)   bands (ev):

    -9.5277  -9.3980  -9.3979  -9.3979  -9.2867  -9.2866  -9.2866  -9.1926
    -8.2707  -8.2391  -8.2390  -8.2390  -8.1703  -8.1701  -8.1701  -8.0397
    -3.7177  -3.5640  -3.5640  -3.5640  -3.4465  -3.4464  -3.4464  -3.3455
    -2.9727  -2.9727  -2.9727  -2.7304  -2.7304  -2.4436  -2.4436  -2.4436
    -1.9477  -1.9477  -1.8249  -1.8249  -1.8249  -1.7637  -1.7637  -1.7637
    -1.1021  -1.1021  -1.1021  -0.9674  -0.9673  -0.9673  -0.7676  -0.7676
    -0.7676  -0.7395  -0.7395  -0.5497  -0.5497  -0.1311   0.0349   0.0351
     0.0351   0.1698   0.1699   0.1699   0.1982   0.2044   0.2044   0.2044
     0.9750   1.7485   1.7744   1.7744   1.7744   2.0999   2.0999   2.1000
     2.1918   2.1918   2.1918   2.4291   2.4291   2.4291   2.5136   2.5136
     2.9466   2.9466   2.9466   2.9486   2.9486   2.9486   3.1508   3.1508
     3.1509   3.1800   3.1800   3.1800   3.1938   3.2781   3.2781   3.2781
     3.5166   3.5166   3.7230   3.7879   3.7879   3.7879   3.8992   3.8992
     3.8992   3.9784   3.9784   3.9785   4.0636   4.0636   4.5098   4.5098
     4.8569   4.8569   5.2643   5.2643   5.2643   5.3563   5.3563   5.3563
     5.3715   5.3715   5.3808   5.3808   5.3808   5.7077   5.7077   5.7077

          k = 0.1667 0.1667-0.5000 ( 24508 PWs)   bands (ev):

    -9.4675  -9.4654  -9.3453  -9.3453  -9.3446  -9.3446  -9.2423  -9.2405
    -8.2548  -8.2510  -8.2025  -8.2024  -8.2005  -8.2004  -8.1038  -8.0974
    -3.6491  -3.6335  -3.5447  -3.5447  -3.4788  -3.4788  -3.4561  -3.3392
    -2.8628  -2.8624  -2.7798  -2.7797  -2.6541  -2.6541  -2.4148  -2.3969
    -2.3535  -2.0839  -1.8775  -1.8775  -1.8642  -1.8610  -1.7802  -1.7802
    -1.1740  -1.1740  -1.0736  -1.0721  -1.0721  -0.7478  -0.7430  -0.7378
    -0.6905  -0.6541  -0.2552  -0.2552  -0.1902  -0.1869  -0.0420  -0.0420
     0.0257   0.0554   0.0554   0.1212   0.1265   0.2277   0.2278   0.3203
     1.4167   1.4300   1.7333   1.8707   1.8707   1.9068   1.9609   1.9609
     2.2754   2.2829   2.4053   2.4053   2.4729   2.4729   2.5459   2.6113
     2.6396   2.6739   2.6739   2.7688   2.7688   2.7755   3.1315   3.1315
     3.2009   3.2063   3.2063   3.2490   3.2890   3.2914   3.4291   3.4291
     3.4439   3.5219   3.5471   3.5817   3.6875   3.6875   3.8241   3.8241
     4.0082   4.0479   4.0479   4.1933   4.1940   4.2086   4.2310   4.2599
     5.0448   5.0448   5.0658   5.0756   5.0984   5.3072   5.3629   5.3630
     5.3901   5.3901   5.4230   5.4360   5.4523   5.4523   5.5523   5.7016

          k = 0.1667-0.5000-0.5000 ( 24548 PWs)   bands (ev):

    -9.4102  -9.4101  -9.4086  -9.4068  -9.2963  -9.2962  -9.2959  -9.2935
    -8.2291  -8.2236  -8.2229  -8.2228  -8.1529  -8.1481  -8.1438  -8.1437
    -3.6063  -3.5822  -3.5822  -3.5401  -3.5200  -3.5200  -3.4265  -3.3670
    -2.7444  -2.7443  -2.7349  -2.6450  -2.5939  -2.5931  -2.3772  -2.3772
    -2.3670  -2.3659  -2.2866  -2.2866  -1.9633  -1.8771  -1.8771  -1.7036
    -1.2715  -1.1623  -1.1623  -0.9469  -0.7076  -0.7075  -0.5124  -0.5123
    -0.4324  -0.3340  -0.3340  -0.3244  -0.1495  -0.1495  -0.0990  -0.0859
    -0.0844   0.0386   0.0386   0.0491   0.0922   0.1536   0.2653   0.2654
     1.5677   1.6571   1.7162   1.7162   1.8015   2.0073   2.1207   2.1208
     2.3159   2.3880   2.3881   2.3892   2.4479   2.4479   2.5412   2.5412
     2.5417   2.5650   2.6055   2.7551   2.7780   2.7838   2.7838   2.8213
     2.8407   3.0118   3.0118   3.2265   3.2312   3.2312   3.2587   3.3425
     3.6382   3.6382   3.7925   3.8353   3.8575   3.8704   3.8756   3.8756
     3.8798   3.9191   3.9589   3.9589   4.0743   4.1941   4.2322   4.2322
     5.0471   5.0471   5.0951   5.1483   5.2609   5.2609   5.3752   5.3902
     5.3902   5.3912   5.4571   5.5265   5.5624   5.5696   5.5696   5.5977

          k =-0.5000-0.5000-0.5000 ( 24464 PWs)   bands (ev):

    -9.3561  -9.3560  -9.3560  -9.3560  -9.3560  -9.3560  -9.3519  -9.3519
    -8.1904  -8.1903  -8.1801  -8.1801  -8.1800  -8.1800  -8.1799  -8.1799
    -3.5510  -3.5510  -3.5510  -3.5509  -3.5509  -3.5509  -3.4262  -3.4262
    -2.4909  -2.4909  -2.4909  -2.4909  -2.4909  -2.4908  -2.4891  -2.4891
    -2.4891  -2.4891  -2.2738  -2.2738  -2.2738  -2.2737  -2.2737  -2.2737
    -0.7319  -0.7319  -0.7319  -0.7318  -0.7318  -0.7318  -0.2871  -0.2871
    -0.2871  -0.2871  -0.2871  -0.2870  -0.2855  -0.2855  -0.2855  -0.2855
    -0.2383  -0.2382   0.1129   0.1129   0.1130   0.1130   0.1131   0.1131
     1.6623   1.6623   2.0483   2.0484   2.0484   2.0484   2.0484   2.0484
     2.5600   2.5600   2.5601   2.5601   2.5601   2.5601   2.5774   2.5774
     2.5774   2.5774   2.6323   2.6323   2.6323   2.6323   2.6323   2.6324
     2.6951   2.6951   2.6951   2.6952   2.6952   2.6952   3.2394   3.2395
     3.9334   3.9334   3.9334   3.9334   3.9334   3.9334   3.9410   3.9410
     3.9411   3.9411   3.9411   3.9411   3.9744   3.9744   3.9745   3.9745
     5.2580   5.2580   5.2580   5.2580   5.3487   5.3487   5.3487   5.3487
     5.3487   5.3488   5.5955   5.5955   5.5955   5.5955   5.5956   5.5956

          k = 0.1667-0.1667 0.1667 ( 24483 PWs)   bands (ev):

    -9.5286  -9.3976  -9.3976  -9.3967  -9.2871  -9.2870  -9.2858  -9.1936
    -8.2687  -8.2408  -8.2380  -8.2379  -8.1736  -8.1711  -8.1710  -8.0366
    -3.7271  -3.5972  -3.5972  -3.5578  -3.4115  -3.4114  -3.3995  -3.3810
    -2.9725  -2.9278  -2.9277  -2.7307  -2.7195  -2.5523  -2.5461  -2.5461
    -1.9491  -1.8304  -1.8292  -1.8292  -1.7617  -1.6847  -1.4990  -1.4990
    -1.3722  -1.3722  -1.1784  -1.1036  -1.1036  -1.0999  -0.8853  -0.7705
    -0.7374  -0.5749  -0.5506  -0.4693  -0.4693   0.0376   0.0377   0.0548
     0.0549   0.0559   0.1146   0.2013   0.2027   0.2027   0.2073   0.2955
     0.8122   1.6821   1.7244   1.7244   1.8295   2.1038   2.1164   2.1234
     2.1235   2.2407   2.2408   2.4757   2.4831   2.4831   2.4866   2.5095
     2.7906   2.7906   2.9482   2.9696   2.9696   3.0406   3.0457   3.0742
     3.1518   3.1518   3.1672   3.2382   3.2382   3.3072   3.4200   3.4871
     3.4871   3.5777   3.5778   3.5849   3.7877   3.8525   3.8805   3.9093
     3.9093   4.0902   4.1109   4.1259   4.1259   4.1987   4.3191   4.3974
     4.8900   4.9354   4.9355   5.1557   5.2611   5.2684   5.2684   5.2968
     5.3208   5.3675   5.3675   5.4502   5.4574   5.5961   5.5962   5.7191

          k = 0.1667-0.1667-0.5000 ( 24508 PWs)   bands (ev):

    -9.4669  -9.4668  -9.3455  -9.3455  -9.3434  -9.3434  -9.2421  -9.2421
    -8.2514  -8.2514  -8.2054  -8.2054  -8.2002  -8.2001  -8.0994  -8.0994
    -3.6590  -3.6589  -3.5305  -3.5305  -3.4624  -3.4624  -3.4123  -3.4122
    -2.8389  -2.8388  -2.7648  -2.7648  -2.6989  -2.6989  -2.4078  -2.4077
    -2.2952  -2.2951  -1.8842  -1.8842  -1.8081  -1.8081  -1.5486  -1.5485
    -1.3602  -1.3602  -1.1640  -1.1640  -1.0384  -1.0383  -0.6728  -0.6728
    -0.5098  -0.5098  -0.2151  -0.2150  -0.1918  -0.1918  -0.1035  -0.1035
     0.1073   0.1073   0.1367   0.1367   0.1657   0.1657   0.1772   0.1773
     1.4227   1.4227   1.8234   1.8234   1.8621   1.8621   1.9150   1.9150
     2.3266   2.3267   2.3699   2.3699   2.5388   2.5388   2.5773   2.5774
     2.6906   2.6907   2.6995   2.6995   2.8246   2.8246   3.1348   3.1348
     3.1353   3.1353   3.1388   3.1388   3.1613   3.1613   3.4967   3.4967
     3.6165   3.6166   3.6167   3.6167   3.7398   3.7398   3.8344   3.8344
     3.9713   3.9713   4.0321   4.0321   4.1684   4.1684   4.3056   4.3056
     5.0502   5.0502   5.0780   5.0780   5.2257   5.2258   5.2518   5.2518
     5.2875   5.2875   5.3985   5.3985   5.5043   5.5043   5.7542   5.7542

     highest occupied level (ev):     5.7542

!    total energy              =    -493.77413679 Ry
     estimated scf accuracy    <       0.00000089 Ry

     The total energy is the sum of the following terms:
     one-electron contribution =     -16.51699014 Ry
     hartree contribution      =     113.36396198 Ry
     xc contribution           =    -159.72332537 Ry
     ewald contribution        =    -430.89778326 Ry

     convergence has been achieved in  22 iterations

     Forces acting on atoms (cartesian axes, Ry/au):

     atom    1 type  1   force =    -0.23243463   -0.23243463    0.26916343
     atom    2 type  1   force =    -0.23245741   -0.23244092    0.26917317
     atom    3 type  1   force =    -0.23244092   -0.23245741    0.26917317
     atom    4 type  1   force =    -0.23246618   -0.23246618    0.26917235
     atom    5 type  1   force =    -0.23241025   -0.23241025    0.26915158
     atom    6 type  1   force =    -0.23243677   -0.23242977    0.26916763
     atom    7 type  1   force =    -0.23242977   -0.23243677    0.26916763
     atom    8 type  1   force =    -0.23245035   -0.23245035    0.26916849
     atom    9 type  1   force =     0.09020732    0.09020732    0.09020732
     atom   10 type  1   force =     0.09022101    0.09021493    0.09021493
     atom   11 type  1   force =     0.09021493    0.09022101    0.09021493
     atom   12 type  1   force =     0.09020307    0.09020307    0.09020363
     atom   13 type  1   force =     0.09021493    0.09021493    0.09022101
     atom   14 type  1   force =     0.09020307    0.09020363    0.09020307
     atom   15 type  1   force =     0.09020363    0.09020307    0.09020307
     atom   16 type  1   force =     0.09017025    0.09017025    0.09017025
     atom   17 type  1   force =    -0.23243463    0.26916343   -0.23243463
     atom   18 type  1   force =    -0.23245741    0.26917317   -0.23244092
     atom   19 type  1   force =    -0.23241025    0.26915158   -0.23241025
     atom   20 type  1   force =    -0.23243677    0.26916763   -0.23242977
     atom   21 type  1   force =    -0.23244092    0.26917317   -0.23245741
     atom   22 type  1   force =    -0.23246618    0.26917235   -0.23246618
     atom   23 type  1   force =    -0.23242977    0.26916763   -0.23243677
     atom   24 type  1   force =    -0.23245035    0.26916849   -0.23245035
     atom   25 type  1   force =     0.26916343   -0.23243463   -0.23243463
     atom   26 type  1   force =     0.26915158   -0.23241025   -0.23241025
     atom   27 type  1   force =     0.26917317   -0.23245741   -0.23244092
     atom   28 type  1   force =     0.26916763   -0.23243677   -0.23242977
     atom   29 type  1   force =     0.26917317   -0.23244092   -0.23245741
     atom   30 type  1   force =     0.26916763   -0.23242977   -0.23243677
     atom   31 type  1   force =     0.26917235   -0.23246618   -0.23246618
     atom   32 type  1   force =     0.26916849   -0.23245035   -0.23245035
     atom   33 type  1   force =    -0.22108784   -0.22108784    0.33204671
     atom   34 type  1   force =    -0.22106813   -0.22107768    0.33202782
     atom   35 type  1   force =    -0.22107768   -0.22106813    0.33202782
     atom   36 type  1   force =    -0.22107060   -0.22107060    0.33202174
     atom   37 type  1   force =    -0.22110991   -0.22110991    0.33207825
     atom   38 type  1   force =    -0.22108006   -0.22109733    0.33205701
     atom   39 type  1   force =    -0.22109733   -0.22108006    0.33205701
     atom   40 type  1   force =    -0.22107222   -0.22107222    0.33203889
     atom   41 type  1   force =     0.21560492    0.21560492    0.21560492
     atom   42 type  1   force =     0.21563615    0.21561306    0.21561306
     atom   43 type  1   force =     0.21561306    0.21563615    0.21561306
     atom   44 type  1   force =     0.21564303    0.21564303    0.21563481
     atom   45 type  1   force =     0.21561306    0.21561306    0.21563615
     atom   46 type  1   force =     0.21564303    0.21563481    0.21564303
     atom   47 type  1   force =     0.21563481    0.21564303    0.21564303
     atom   48 type  1   force =     0.21566112    0.21566112    0.21566112
     atom   49 type  1   force =    -0.22108784    0.33204671   -0.22108784
     atom   50 type  1   force =    -0.22106813    0.33202782   -0.22107768
     atom   51 type  1   force =    -0.22110991    0.33207825   -0.22110991
     atom   52 type  1   force =    -0.22108006    0.33205701   -0.22109733
     atom   53 type  1   force =    -0.22107768    0.33202782   -0.22106813
     atom   54 type  1   force =    -0.22107060    0.33202174   -0.22107060
     atom   55 type  1   force =    -0.22109733    0.33205701   -0.22108006
     atom   56 type  1   force =    -0.22107222    0.33203889   -0.22107222
     atom   57 type  1   force =     0.33204671   -0.22108784   -0.22108784
     atom   58 type  1   force =     0.33207825   -0.22110991   -0.22110991
     atom   59 type  1   force =     0.33202782   -0.22106813   -0.22107768
     atom   60 type  1   force =     0.33205701   -0.22108006   -0.22109733
     atom   61 type  1   force =     0.33202782   -0.22107768   -0.22106813
     atom   62 type  1   force =     0.33205701   -0.22109733   -0.22108006
     atom   63 type  1   force =     0.33202174   -0.22107060   -0.22107060
     atom   64 type  1   force =     0.33203889   -0.22107222   -0.22107222

     Total force =     3.261230     Total SCF correction =     0.001647


     Computing stress (Cartesian axis) and pressure

          total   stress  (Ry/bohr**3)                   (kbar)     P=      356.41
   0.00242283   0.00008594   0.00008594          356.41       12.64       12.64
   0.00008594   0.00242283   0.00008594           12.64      356.41       12.64
   0.00008594   0.00008594   0.00242283           12.64       12.64      356.41


     Writing all to output data dir ./Si2.save/
 
     init_run     :     56.20s CPU     56.86s WALL (       1 calls)
     electrons    :   2015.56s CPU   2028.35s WALL (       1 calls)
     forces       :     10.26s CPU     10.29s WALL (       1 calls)
     stress       :     83.30s CPU     83.52s WALL (       1 calls)

     Called by init_run:
     wfcinit      :     54.65s CPU     55.18s WALL (       1 calls)
     potinit      :      0.66s CPU      0.73s WALL (       1 calls)
     hinit0       :      0.43s CPU      0.46s WALL (       1 calls)

     Called by electrons:
     c_bands      :   1785.42s CPU   1796.75s WALL (      22 calls)
     sum_band     :    214.66s CPU    215.76s WALL (      22 calls)
     v_of_rho     :     14.28s CPU     14.53s WALL (      23 calls)
     mix_rho      :      1.67s CPU      1.75s WALL (      22 calls)

     Called by c_bands:
     init_us_2    :     20.44s CPU     20.48s WALL (     282 calls)
     init_us_2:cp :     20.43s CPU     20.47s WALL (     282 calls)
     cegterg      :   1746.97s CPU   1758.23s WALL (     132 calls)

     Called by *egterg:
     cdiaghg      :     70.76s CPU     71.11s WALL (     985 calls)
     h_psi        :   1363.33s CPU   1371.56s WALL (     991 calls)
     g_psi        :      5.95s CPU      5.99s WALL (     853 calls)

     Called by h_psi:
     h_psi:calbec :    112.04s CPU    112.09s WALL (     991 calls)
     vloc_psi     :   1103.66s CPU   1109.33s WALL (     991 calls)
     add_vuspsi   :    143.27s CPU    143.34s WALL (     991 calls)

     General routines
     calbec       :    119.79s CPU    119.85s WALL (    1021 calls)
     fft          :      2.34s CPU      2.36s WALL (     237 calls)
     ffts         :      0.22s CPU      0.22s WALL (      22 calls)
     fftw         :   1104.92s CPU   1108.19s WALL (  112548 calls)
 
     Parallel routines
 
     PWSCF        :  36m 5.92s CPU  36m21.50s WALL

 
   This run was terminated on:  14:17:20  21Feb2022            

=------------------------------------------------------------------------------=
   JOB DONE.
=------------------------------------------------------------------------------=
