
     Program PWSCF v.7.0 starts on 20Feb2022 at 21:46:53 

     This program is part of the open-source Quantum ESPRESSO suite
     for quantum simulation of materials; please cite
         "P. Giannozzi et al., J. Phys.:Condens. Matter 21 395502 (2009);
         "P. Giannozzi et al., J. Phys.:Condens. Matter 29 465901 (2017);
         "P. Giannozzi et al., J. Chem. Phys. 152 154105 (2020);
          URL http://www.quantum-espresso.org", 
     in publications or presentations arising from this work. More details at
     http://www.quantum-espresso.org/quote

     Parallel version (MPI), running on     1 processors

     MPI processes distributed on     1 nodes
     89069 MiB available memory on the printing compute node when the environment starts
 
     Reading input from Si64.scf.70.in
Warning: card  SI   0.3669964855000001  0.8669964855000001  0.0000000000000000 ignored
Warning: card  SI   0.8669964855000001  0.8669964855000001  0.0000000000000000 ignored
Warning: card  SI   0.3669964855000001  0.3669964855000001  0.5000000000000000 ignored
Warning: card  SI   0.8669964855000001  0.3669964855000001  0.5000000000000000 ignored
Warning: card  SI   0.3669964855000001  0.8669964855000001  0.5000000000000000 ignored
Warning: card  SI   0.8669964855000001  0.8669964855000001  0.5000000000000000 ignored
Warning: card  SI   0.0000000000000000  0.0000000000000000  0.0000000000000000 ignored
Warning: card  SI   0.5000000000000000  0.0000000000000000  0.0000000000000000 ignored
Warning: card  SI   0.0000000000000000  0.5000000000000000  0.0000000000000000 ignored
Warning: card  SI   0.5000000000000000  0.5000000000000000  0.0000000000000000 ignored
Warning: card  SI   0.0000000000000000  0.0000000000000000  0.5000000000000000 ignored
Warning: card  SI   0.5000000000000000  0.0000000000000000  0.5000000000000000 ignored
Warning: card  SI   0.0000000000000000  0.5000000000000000  0.5000000000000000 ignored
Warning: card  SI   0.5000000000000000  0.5000000000000000  0.5000000000000000 ignored
Warning: card  SI   0.3669964855000001  0.0000000000000000  0.3669964855000001 ignored
Warning: card  SI   0.8669964855000001  0.0000000000000000  0.3669964855000001 ignored
Warning: card  SI   0.3669964855000001  0.5000000000000000  0.3669964855000001 ignored
Warning: card  SI   0.8669964855000001  0.5000000000000000  0.3669964855000001 ignored
Warning: card  SI   0.3669964855000001  0.0000000000000000  0.8669964855000001 ignored
Warning: card  SI   0.8669964855000001  0.0000000000000000  0.8669964855000001 ignored
Warning: card  SI   0.3669964855000001  0.5000000000000000  0.8669964855000001 ignored
Warning: card  SI   0.8669964855000001  0.5000000000000000  0.8669964855000001 ignored
Warning: card  SI   0.0000000000000000  0.3669964855000001  0.3669964855000001 ignored
Warning: card  SI   0.5000000000000000  0.3669964855000001  0.3669964855000001 ignored
Warning: card  SI   0.0000000000000000  0.8669964855000001  0.3669964855000001 ignored
Warning: card  SI   0.5000000000000000  0.8669964855000001  0.3669964855000001 ignored
Warning: card  SI   0.0000000000000000  0.3669964855000001  0.8669964855000001 ignored
Warning: card  SI   0.5000000000000000  0.3669964855000001  0.8669964855000001 ignored
Warning: card  SI   0.0000000000000000  0.8669964855000001  0.8669964855000001 ignored
Warning: card  SI   0.5000000000000000  0.8669964855000001  0.8669964855000001 ignored
Warning: card  SI   0.0504947279999999  0.0504947279999999  0.6834982425000000 ignored
Warning: card  SI   0.5504947279999999  0.0504947279999999  0.6834982425000000 ignored
Warning: card  SI   0.0504947279999999  0.5504947279999999  0.6834982425000000 ignored
Warning: card  SI   0.5504947279999999  0.5504947279999999  0.6834982425000000 ignored
Warning: card  SI   0.0504947279999999  0.0504947279999999  0.1834982425000000 ignored
Warning: card  SI   0.5504947279999999  0.0504947279999999  0.1834982425000000 ignored
Warning: card  SI   0.0504947279999999  0.5504947279999999  0.1834982425000000 ignored
Warning: card  SI   0.5504947279999999  0.5504947279999999  0.1834982425000000 ignored
Warning: card  SI   0.6834982425000000  0.6834982425000000  0.6834982425000000 ignored
Warning: card  SI   0.1834982425000000  0.6834982425000000  0.6834982425000000 ignored
Warning: card  SI   0.6834982425000000  0.1834982425000000  0.6834982425000000 ignored
Warning: card  SI   0.1834982425000000  0.1834982425000000  0.6834982425000000 ignored
Warning: card  SI   0.6834982425000000  0.6834982425000000  0.1834982425000000 ignored
Warning: card  SI   0.1834982425000000  0.6834982425000000  0.1834982425000000 ignored
Warning: card  SI   0.6834982425000000  0.1834982425000000  0.1834982425000000 ignored
Warning: card  SI   0.1834982425000000  0.1834982425000000  0.1834982425000000 ignored
Warning: card  SI   0.0504947279999999  0.6834982425000000  0.0504947279999999 ignored
Warning: card  SI   0.5504947279999999  0.6834982425000000  0.0504947279999999 ignored
Warning: card  SI   0.0504947279999999  0.1834982425000000  0.0504947279999999 ignored
Warning: card  SI   0.5504947279999999  0.1834982425000000  0.0504947279999999 ignored
Warning: card  SI   0.0504947279999999  0.6834982425000000  0.5504947279999999 ignored
Warning: card  SI   0.5504947279999999  0.6834982425000000  0.5504947279999999 ignored
Warning: card  SI   0.0504947279999999  0.1834982425000000  0.5504947279999999 ignored
Warning: card  SI   0.5504947279999999  0.1834982425000000  0.5504947279999999 ignored
Warning: card  SI   0.6834982425000000  0.0504947279999999  0.0504947279999999 ignored
Warning: card  SI   0.1834982425000000  0.0504947279999999  0.0504947279999999 ignored
Warning: card  SI   0.6834982425000000  0.5504947279999999  0.0504947279999999 ignored
Warning: card  SI   0.1834982425000000  0.5504947279999999  0.0504947279999999 ignored
Warning: card  SI   0.6834982425000000  0.0504947279999999  0.5504947279999999 ignored
Warning: card  SI   0.1834982425000000  0.0504947279999999  0.5504947279999999 ignored
Warning: card  SI   0.6834982425000000  0.5504947279999999  0.5504947279999999 ignored
Warning: card  SI   0.1834982425000000  0.5504947279999999  0.5504947279999999 ignored

     Current dimensions of program PWSCF are:
     Max number of different atomic species (ntypx) = 10
     Max number of k-points (npk) =  40000
     Max angular momentum in pseudopotentials (lmaxx) =  4
     Found identity + ( -0.5000  0.0000  0.0000) symmetry
     This is a supercell, fractional translations are disabled

     Subspace diagonalization in iterative solution of the eigenvalue problem:
     a serial algorithm will be used

 
     G-vector sticks info
     --------------------
     sticks:   dense  smooth     PW     G-vecs:    dense   smooth      PW
     Sum        1039    1039    313                22075    22075    3695
 
     Using Slab Decomposition
 


     bravais-lattice index     =            2
     lattice parameter (alat)  =      10.3330  a.u.
     unit-cell volume          =     275.8159 (a.u.)^3
     number of atoms/cell      =            2
     number of atomic types    =            1
     number of electrons       =         8.00
     number of Kohn-Sham states=            4
     kinetic-energy cutoff     =      70.0000  Ry
     charge density cutoff     =     280.0000  Ry
     scf convergence threshold =      1.0E-06
     mixing beta               =       0.7000
     number of iterations used =            8  plain     mixing
     Exchange-correlation=  SLA  PW   PBE  PBE
                           (   1   4   3   4   0   0   0)

     celldm(1)=  10.333000  celldm(2)=   0.000000  celldm(3)=   0.000000
     celldm(4)=   0.000000  celldm(5)=   0.000000  celldm(6)=   0.000000

     crystal axes: (cart. coord. in units of alat)
               a(1) = (  -0.500000   0.000000   0.500000 )  
               a(2) = (   0.000000   0.500000   0.500000 )  
               a(3) = (  -0.500000   0.500000   0.000000 )  

     reciprocal axes: (cart. coord. in units 2 pi/alat)
               b(1) = ( -1.000000 -1.000000  1.000000 )  
               b(2) = (  1.000000  1.000000  1.000000 )  
               b(3) = ( -1.000000  1.000000 -1.000000 )  


     PseudoPot. # 1 for Si read from file:
     ../Si.pbe-rrkj.UPF
     MD5 check sum: cf7ab5690cd9a85b22c4813f7e365554
     Pseudo is Norm-conserving, Zval =  4.0
     Generated by new atomic code, or converted to UPF format
     Using radial grid of  883 points,  3 beta functions with: 
                l(1) =   0
                l(2) =   0
                l(3) =   1

     atomic species   valence    mass     pseudopotential
        Si             4.00    28.08600     Si( 1.00)

     No symmetry found



   Cartesian axes

     site n.     atom                  positions (alat units)
         1           Si  tau(   1) = (  -0.1834982   0.1834982   0.3669965  )
         2           Si  tau(   2) = (  -0.4334982   0.1834982   0.6169965  )

     number of k points=   432

     Number of k-points >= 100: set verbosity='high' to print them.

     Dense  grid:    22075 G-vectors     FFT dimensions: (  40,  40,  40)

     Estimated max dynamical RAM per process >      86.99 MB

     Initial potential from superposition of free atoms

     starting charge       7.9989, renormalised to       8.0000
     Starting wfcs are    8 randomized atomic wfcs

     total cpu time spent up to now is       15.1 secs

     Self-consistent Calculation

     iteration #  1     ecut=    70.00 Ry     beta= 0.70
     Davidson diagonalization with overlap
     ethr =  1.00E-02,  avg # of iterations =  2.0

     Threshold (ethr) on eigenvalues was too large:
     Diagonalizing with lowered threshold

     Davidson diagonalization with overlap
     ethr =  8.05E-04,  avg # of iterations =  3.0

     total cpu time spent up to now is       60.2 secs

     total energy              =     -15.37986104 Ry
     estimated scf accuracy    <       0.10025973 Ry

     iteration #  2     ecut=    70.00 Ry     beta= 0.70
     Davidson diagonalization with overlap
     ethr =  1.25E-03,  avg # of iterations =  1.9

     total cpu time spent up to now is       79.7 secs

     total energy              =     -15.38902926 Ry
     estimated scf accuracy    <       0.00229896 Ry

     iteration #  3     ecut=    70.00 Ry     beta= 0.70
     Davidson diagonalization with overlap
     c_bands:  1 eigenvalues not converged
     c_bands:  1 eigenvalues not converged
     c_bands:  1 eigenvalues not converged
     ethr =  2.87E-05,  avg # of iterations =  3.9

     total cpu time spent up to now is      106.2 secs

     total energy              =     -15.39036527 Ry
     estimated scf accuracy    <       0.00019304 Ry

     iteration #  4     ecut=    70.00 Ry     beta= 0.70
     Davidson diagonalization with overlap
     c_bands:  1 eigenvalues not converged
     c_bands:  1 eigenvalues not converged
     c_bands:  1 eigenvalues not converged
     c_bands:  1 eigenvalues not converged
     c_bands:  1 eigenvalues not converged
     c_bands:  1 eigenvalues not converged
     c_bands:  1 eigenvalues not converged
     c_bands:  1 eigenvalues not converged
     c_bands:  1 eigenvalues not converged
     ethr =  2.41E-06,  avg # of iterations =  3.3

     total cpu time spent up to now is      132.0 secs

     total energy              =     -15.39283460 Ry
     estimated scf accuracy    <       0.00002191 Ry

     iteration #  5     ecut=    70.00 Ry     beta= 0.70
     Davidson diagonalization with overlap
     c_bands:  1 eigenvalues not converged
     c_bands:  1 eigenvalues not converged
     c_bands:  1 eigenvalues not converged
     c_bands:  1 eigenvalues not converged
     c_bands:  1 eigenvalues not converged
     c_bands:  1 eigenvalues not converged
     c_bands:  1 eigenvalues not converged
     c_bands:  1 eigenvalues not converged
     c_bands:  1 eigenvalues not converged
     ethr =  2.74E-07,  avg # of iterations =  3.8

     total cpu time spent up to now is      157.2 secs

     total energy              =     -15.39332669 Ry
     estimated scf accuracy    <       0.00000832 Ry

     iteration #  6     ecut=    70.00 Ry     beta= 0.70
     Davidson diagonalization with overlap
     c_bands:  1 eigenvalues not converged
     c_bands:  1 eigenvalues not converged
     c_bands:  1 eigenvalues not converged
     c_bands:  1 eigenvalues not converged
     c_bands:  1 eigenvalues not converged
     c_bands:  1 eigenvalues not converged
     ethr =  1.04E-07,  avg # of iterations =  2.4

     total cpu time spent up to now is      177.3 secs

     total energy              =     -15.39339624 Ry
     estimated scf accuracy    <       0.00000397 Ry

     iteration #  7     ecut=    70.00 Ry     beta= 0.70
     Davidson diagonalization with overlap
     c_bands:  1 eigenvalues not converged
     c_bands:  1 eigenvalues not converged
     c_bands:  1 eigenvalues not converged
     c_bands:  1 eigenvalues not converged
     c_bands:  1 eigenvalues not converged
     c_bands:  1 eigenvalues not converged
     ethr =  4.96E-08,  avg # of iterations =  2.4

     total cpu time spent up to now is      197.1 secs

     total energy              =     -15.39345972 Ry
     estimated scf accuracy    <       0.00000236 Ry

     iteration #  8     ecut=    70.00 Ry     beta= 0.70
     Davidson diagonalization with overlap
     c_bands:  1 eigenvalues not converged
     c_bands:  1 eigenvalues not converged
     c_bands:  1 eigenvalues not converged
     c_bands:  1 eigenvalues not converged
     ethr =  2.95E-08,  avg # of iterations =  1.5

     total cpu time spent up to now is      214.9 secs

     total energy              =     -15.39352802 Ry
     estimated scf accuracy    <       0.00000184 Ry

     iteration #  9     ecut=    70.00 Ry     beta= 0.70
     Davidson diagonalization with overlap
     c_bands:  1 eigenvalues not converged
     c_bands:  1 eigenvalues not converged
     c_bands:  1 eigenvalues not converged
     c_bands:  1 eigenvalues not converged
     c_bands:  1 eigenvalues not converged
     ethr =  2.30E-08,  avg # of iterations =  1.5

     total cpu time spent up to now is      232.7 secs

     End of self-consistent calculation

     Number of k-points >= 100: set verbosity='high' to print the bands.

     highest occupied level (ev):     6.8736

!    total energy              =     -15.39358203 Ry
     estimated scf accuracy    <       0.00000090 Ry

     The total energy is the sum of the following terms:
     one-electron contribution =       4.16385021 Ry
     hartree contribution      =       1.27059804 Ry
     xc contribution           =      -4.82529387 Ry
     ewald contribution        =     -16.00273642 Ry

     convergence has been achieved in   9 iterations

     Forces acting on atoms (cartesian axes, Ry/au):

     atom    1 type  1   force =    -0.00004971   -0.00014031    0.00019495
     atom    2 type  1   force =     0.00004971    0.00014031   -0.00019495

     Total force =     0.000347     Total SCF correction =     0.000091
     SCF correction compared to forces is large: reduce conv_thr to get better values


     Computing stress (Cartesian axis) and pressure

          total   stress  (Ry/bohr**3)                   (kbar)     P=      250.97
   0.00252616  -0.00000875  -0.00224270          371.61       -1.29     -329.91
  -0.00000875   0.00007188  -0.00000840           -1.29       10.57       -1.24
  -0.00224270  -0.00000840   0.00252019         -329.91       -1.24      370.73


     Writing all to output data dir ./Si2.save/
 
     init_run     :     14.34s CPU     14.80s WALL (       1 calls)
     electrons    :    209.76s CPU    217.58s WALL (       1 calls)
     forces       :      1.23s CPU      1.28s WALL (       1 calls)
     stress       :      9.95s CPU     10.00s WALL (       1 calls)

     Called by init_run:
     wfcinit      :     13.67s CPU     14.11s WALL (       1 calls)
     potinit      :      0.10s CPU      0.11s WALL (       1 calls)
     hinit0       :      0.19s CPU      0.20s WALL (       1 calls)

     Called by electrons:
     c_bands      :    174.46s CPU    181.19s WALL (      10 calls)
     sum_band     :     34.42s CPU     35.47s WALL (      10 calls)
     v_of_rho     :      0.90s CPU      0.92s WALL (      10 calls)
     mix_rho      :      0.05s CPU      0.07s WALL (      10 calls)

     Called by c_bands:
     init_us_2    :     14.59s CPU     15.42s WALL (    9936 calls)
     init_us_2:cp :     14.34s CPU     15.24s WALL (    9936 calls)
     cegterg      :    164.03s CPU    169.75s WALL (    4320 calls)

     Called by *egterg:
     cdiaghg      :      4.31s CPU      4.71s WALL (   14985 calls)
     h_psi        :    159.88s CPU    164.75s WALL (   15849 calls)
     g_psi        :      0.65s CPU      0.70s WALL (   11097 calls)

     Called by h_psi:
     h_psi:calbec :      3.51s CPU      3.67s WALL (   15849 calls)
     vloc_psi     :    152.76s CPU    157.24s WALL (   15849 calls)
     add_vuspsi   :      2.37s CPU      2.60s WALL (   15849 calls)

     General routines
     calbec       :      3.56s CPU      3.86s WALL (   18009 calls)
     fft          :      0.14s CPU      0.16s WALL (     108 calls)
     ffts         :      0.01s CPU      0.01s WALL (      10 calls)
     fftw         :    149.04s CPU    153.50s WALL (  117870 calls)
 
     Parallel routines
 
     PWSCF        :   3m56.08s CPU   4m 7.50s WALL

 
   This run was terminated on:  21:51: 1  20Feb2022            

=------------------------------------------------------------------------------=
   JOB DONE.
=------------------------------------------------------------------------------=
