
     Program PWSCF v.6.7MaX starts on 24Feb2022 at 22:23:48 

     This program is part of the open-source Quantum ESPRESSO suite
     for quantum simulation of materials; please cite
         "P. Giannozzi et al., J. Phys.:Condens. Matter 21 395502 (2009);
         "P. Giannozzi et al., J. Phys.:Condens. Matter 29 465901 (2017);
          URL http://www.quantum-espresso.org", 
     in publications or presentations arising from this work. More details at
     http://www.quantum-espresso.org/quote

     Parallel version (MPI), running on    40 processors

     MPI processes distributed on     1 nodes
     R & G space division:  proc/nbgrp/npool/nimage =      40
     Waiting for input...
     Reading input from standard input

     Current dimensions of program PWSCF are:
     Max number of different atomic species (ntypx) = 10
     Max number of k-points (npk) =  40000
     Max angular momentum in pseudopotentials (lmaxx) =  3

     Subspace diagonalization in iterative solution of the eigenvalue problem:
     a serial algorithm will be used

     Found symmetry operation: I + (  0.5000  0.5000  0.0000)
     This is a supercell, fractional translations are disabled
     Message from routine setup:
     using ibrav=0 with symmetry is DISCOURAGED, use correct ibrav instead

     Parallelization info
     --------------------
     sticks:   dense  smooth     PW     G-vecs:    dense   smooth      PW
     Min          59      59     16                 2183     2183     326
     Max          60      60     17                 2190     2190     331
     Sum        2385    2385    673                87391    87391   13133



     bravais-lattice index     =            0
     lattice parameter (alat)  =      10.3330  a.u.
     unit-cell volume          =    1103.2623 (a.u.)^3
     number of atoms/cell      =            8
     number of atomic types    =            1
     number of electrons       =        32.00
     number of Kohn-Sham states=           16
     kinetic-energy cutoff     =      70.0000  Ry
     charge density cutoff     =     280.0000  Ry
     scf convergence threshold =      1.0E-06
     mixing beta               =       0.7000
     number of iterations used =            8  plain     mixing
     Exchange-correlation=  SLA  PW   PBE  PBE
                           (   1   4   3   4   0   0   0)

     celldm(1)=  10.332996  celldm(2)=   0.000000  celldm(3)=   0.000000
     celldm(4)=   0.000000  celldm(5)=   0.000000  celldm(6)=   0.000000

     crystal axes: (cart. coord. in units of alat)
               a(1) = (   1.000000   0.000000   0.000000 )  
               a(2) = (   0.000000   1.000000   0.000000 )  
               a(3) = (   0.000000   0.000000   1.000000 )  

     reciprocal axes: (cart. coord. in units 2 pi/alat)
               b(1) = (  1.000000  0.000000  0.000000 )  
               b(2) = (  0.000000  1.000000  0.000000 )  
               b(3) = (  0.000000  0.000000  1.000000 )  


     PseudoPot. # 1 for Si read from file:
     ./Si.pbe-rrkj.UPF
     MD5 check sum: cf7ab5690cd9a85b22c4813f7e365554
     Pseudo is Norm-conserving, Zval =  4.0
     Generated by new atomic code, or converted to UPF format
     Using radial grid of  883 points,  3 beta functions with: 
                l(1) =   0
                l(2) =   0
                l(3) =   1

     atomic species   valence    mass     pseudopotential
        Si             4.00    28.08600     Si( 1.00)

     24 Sym. Ops. (no inversion) found



   Cartesian axes

     site n.     atom                  positions (alat units)
         1           Si  tau(   1) = (   0.5000000   0.5000000   0.0000000  )
         2           Si  tau(   2) = (   0.0000000   0.0000000   0.0000000  )
         3           Si  tau(   3) = (   0.5000000   0.0000000   0.5000000  )
         4           Si  tau(   4) = (   0.0000000   0.5000000   0.5000000  )
         5           Si  tau(   5) = (   0.7500000   0.7500000   0.2500000  )
         6           Si  tau(   6) = (   0.2500000   0.2500000   0.2500000  )
         7           Si  tau(   7) = (   0.7500000   0.2500000   0.7500000  )
         8           Si  tau(   8) = (   0.2500000   0.7500000   0.7500000  )

     number of k points=    10
                       cart. coord. in units 2pi/alat
        k(    1) = (   0.1000000   0.1000000   0.1000000), wk =   0.1280000
        k(    2) = (   0.1000000   0.1000000   0.3000000), wk =   0.3840000
        k(    3) = (   0.1000000   0.1000000  -0.5000000), wk =   0.1920000
        k(    4) = (   0.1000000   0.3000000   0.3000000), wk =   0.3840000
        k(    5) = (   0.1000000   0.3000000  -0.5000000), wk =   0.3840000
        k(    6) = (   0.1000000  -0.5000000  -0.5000000), wk =   0.0960000
        k(    7) = (   0.3000000   0.3000000   0.3000000), wk =   0.1280000
        k(    8) = (   0.3000000   0.3000000  -0.5000000), wk =   0.1920000
        k(    9) = (   0.3000000  -0.5000000  -0.5000000), wk =   0.0960000
        k(   10) = (  -0.5000000  -0.5000000  -0.5000000), wk =   0.0160000

     Dense  grid:    87391 G-vectors     FFT dimensions: (  60,  60,  60)

     Estimated max dynamical RAM per process >       2.85 MB

     Estimated total dynamical RAM >     114.08 MB

     Initial potential from superposition of free atoms

     starting charge   31.99557, renormalised to   32.00000
     Starting wfcs are   32 randomized atomic wfcs

     total cpu time spent up to now is       20.5 secs

     Self-consistent Calculation

     iteration #  1     ecut=    70.00 Ry     beta= 0.70
     Davidson diagonalization with overlap
     ethr =  1.00E-02,  avg # of iterations =  2.0

     Threshold (ethr) on eigenvalues was too large:
     Diagonalizing with lowered threshold

     Davidson diagonalization with overlap
     ethr =  5.70E-04,  avg # of iterations =  2.0

     total cpu time spent up to now is      140.2 secs

     total energy              =     -62.95802231 Ry
     estimated scf accuracy    <       0.21412849 Ry

     iteration #  2     ecut=    70.00 Ry     beta= 0.70
     Davidson diagonalization with overlap
     ethr =  6.69E-04,  avg # of iterations =  1.0

     total cpu time spent up to now is      181.2 secs

     total energy              =     -62.96481794 Ry
     estimated scf accuracy    <       0.01243571 Ry

     iteration #  3     ecut=    70.00 Ry     beta= 0.70
     Davidson diagonalization with overlap
     ethr =  3.89E-05,  avg # of iterations =  2.3

     total cpu time spent up to now is      243.7 secs

     total energy              =     -62.96721430 Ry
     estimated scf accuracy    <       0.00036508 Ry

     iteration #  4     ecut=    70.00 Ry     beta= 0.70
     Davidson diagonalization with overlap
     ethr =  1.14E-06,  avg # of iterations =  4.9

     total cpu time spent up to now is      345.0 secs

     total energy              =     -62.96749804 Ry
     estimated scf accuracy    <       0.00001947 Ry

     iteration #  5     ecut=    70.00 Ry     beta= 0.70
     Davidson diagonalization with overlap
     ethr =  6.09E-08,  avg # of iterations =  4.4

     total cpu time spent up to now is      434.8 secs

     End of self-consistent calculation

          k = 0.1000 0.1000 0.1000 ( 10918 PWs)   bands (ev):

    -5.6184  -2.3699  -2.3699  -2.3695  -0.8972  -0.8972  -0.8969   2.8118
     2.8118   2.8119   3.3311   3.3313   3.3313   4.8889   5.8225   5.8225

          k = 0.1000 0.1000 0.3000 ( 10934 PWs)   bands (ev):

    -5.2783  -3.6246  -2.2465  -2.2462  -0.9169  -0.9167   0.6703   2.1906
     2.1907   3.1034   3.1034   3.2272   3.6009   3.6346   5.0296   5.1929

          k = 0.1000 0.1000-0.5000 ( 10894 PWs)   bands (ev):

    -4.6071  -4.6067  -2.1564  -2.1560  -0.9482  -0.9480   1.9791   1.9793
     2.1977   2.1979   2.8531   2.8531   4.0662   4.0665   4.2213   4.2218

          k = 0.1000 0.3000 0.3000 ( 10904 PWs)   bands (ev):

    -4.9483  -3.3733  -3.3730  -2.4810  -0.7793   0.2301   0.2302   1.8786
     2.4331   2.6701   2.6701   3.6590   3.6593   3.8511   4.2892   5.5197

          k = 0.1000 0.3000-0.5000 ( 10916 PWs)   bands (ev):

    -4.3022  -4.3017  -2.9350  -2.9346  -0.3591  -0.3589   1.3081   1.3083
     2.1236   2.1239   3.4086   3.4088   3.8389   3.8390   4.6985   4.6986

          k = 0.1000-0.5000-0.5000 ( 10908 PWs)   bands (ev):

    -3.7196  -3.7195  -3.7195  -3.7188   0.3939   0.3941   0.3941   0.3943
     2.6421   2.6424   2.6424   2.6425   4.7261   4.7263   4.7266   4.7266

          k = 0.3000 0.3000 0.3000 ( 10891 PWs)   bands (ev):

    -4.6352  -3.2294  -3.2294  -3.2289  -0.3673  -0.3673  -0.3673   1.3053
     2.9507   2.9507   2.9511   4.1055   4.1057   4.1057   5.1195   5.1195

          k = 0.3000 0.3000-0.5000 ( 10920 PWs)   bands (ev):

    -4.0353  -4.0349  -3.1227  -3.1223  -0.6877  -0.6876   0.3313   0.3316
     3.1181   3.1185   4.2227   4.2227   4.3638   4.3639   4.5688   4.5693

          k = 0.3000-0.5000-0.5000 ( 10908 PWs)   bands (ev):

    -3.5725  -3.5724  -3.5724  -3.5716  -0.4407  -0.4404  -0.4404  -0.4403
     3.9547   3.9550   3.9550   3.9554   4.7939   4.7941   4.7944   4.7944

          k =-0.5000-0.5000-0.5000 ( 11056 PWs)   bands (ev):

    -3.4634  -3.4634  -3.4634  -3.4626  -0.8251  -0.8249  -0.8249  -0.8249
     4.8386   4.8386   4.8388   4.8388   4.8388   4.8393   4.8393   4.8393

     highest occupied level (ev):     5.8225

!    total energy              =     -62.96750861 Ry
     estimated scf accuracy    <       0.00000028 Ry

     The total energy is the sum of the following terms:
     one-electron contribution =      18.47536498 Ry
     hartree contribution      =       4.44927182 Ry
     xc contribution           =     -19.16317760 Ry
     ewald contribution        =     -66.72896782 Ry

     convergence has been achieved in   5 iterations

     Forces acting on atoms (cartesian axes, Ry/au):

     atom    1 type  1   force =     0.00000000    0.00000000    0.00000000
     atom    2 type  1   force =     0.00000000    0.00000000    0.00000000
     atom    3 type  1   force =     0.00000000    0.00000000    0.00000000
     atom    4 type  1   force =     0.00000000    0.00000000    0.00000000
     atom    5 type  1   force =     0.00001375    0.00001375   -0.00001375
     atom    6 type  1   force =    -0.00001375   -0.00001375   -0.00001375
     atom    7 type  1   force =     0.00001375   -0.00001375    0.00001375
     atom    8 type  1   force =    -0.00001375    0.00001375    0.00001375

     Total force =     0.000048     Total SCF correction =     0.000360
     SCF correction compared to forces is large: reduce conv_thr to get better values


     Computing stress (Cartesian axis) and pressure

          total   stress  (Ry/bohr**3)                   (kbar)     P=        3.47
   0.00002357   0.00000000   0.00000000            3.47        0.00        0.00
   0.00000000   0.00002357   0.00000000            0.00        3.47        0.00
   0.00000000   0.00000000   0.00002357            0.00        0.00        3.47


     Writing output data file ./Si8.save/

     init_run     :      7.62s CPU     20.33s WALL (       1 calls)
     electrons    :    169.35s CPU    414.24s WALL (       1 calls)
     forces       :      8.29s CPU     20.78s WALL (       1 calls)
     stress       :      2.00s CPU      5.08s WALL (       1 calls)

     Called by init_run:
     wfcinit      :      7.58s CPU     20.28s WALL (       1 calls)
     potinit      :      0.01s CPU      0.01s WALL (       1 calls)
     hinit0       :      0.01s CPU      0.01s WALL (       1 calls)

     Called by electrons:
     c_bands      :    168.73s CPU    413.49s WALL (       6 calls)
     sum_band     :      0.56s CPU      0.68s WALL (       6 calls)
     v_of_rho     :      0.03s CPU      0.03s WALL (       6 calls)
     mix_rho      :      0.00s CPU      0.00s WALL (       6 calls)

     Called by c_bands:
     init_us_2    :      0.01s CPU      0.03s WALL (     150 calls)
     cegterg      :    159.78s CPU    395.10s WALL (      60 calls)

     Called by *egterg:
     cdiaghg      :     15.97s CPU     28.60s WALL (     216 calls)
     h_psi        :     54.45s CPU    163.67s WALL (     236 calls)
     g_psi        :      0.00s CPU      0.00s WALL (     166 calls)

     Called by h_psi:
     h_psi:calbec :     31.65s CPU    100.45s WALL (     236 calls)
     vloc_psi     :     13.26s CPU     16.50s WALL (     236 calls)
     add_vuspsi   :      9.54s CPU     46.66s WALL (     236 calls)

     General routines
     calbec       :     41.78s CPU    125.41s WALL (     286 calls)
     fft          :      0.02s CPU      0.02s WALL (      68 calls)
     ffts         :      0.00s CPU      0.00s WALL (       6 calls)
     fftw         :     13.76s CPU     16.78s WALL (    7264 calls)

     Parallel routines
     fft_scatt_xy :      0.06s CPU      0.08s WALL (    7338 calls)
     fft_scatt_yz :     13.35s CPU     15.80s WALL (    7338 calls)

     PWSCF        :   3m 7.50s CPU   7m40.91s WALL


   This run was terminated on:  22:31:29  24Feb2022            

=------------------------------------------------------------------------------=
   JOB DONE.
=------------------------------------------------------------------------------=
