
     Program PWSCF v.6.7MaX starts on 24Feb2022 at 21:55:53 

     This program is part of the open-source Quantum ESPRESSO suite
     for quantum simulation of materials; please cite
         "P. Giannozzi et al., J. Phys.:Condens. Matter 21 395502 (2009);
         "P. Giannozzi et al., J. Phys.:Condens. Matter 29 465901 (2017);
          URL http://www.quantum-espresso.org", 
     in publications or presentations arising from this work. More details at
     http://www.quantum-espresso.org/quote

     Parallel version (MPI), running on    40 processors

     MPI processes distributed on     1 nodes
     R & G space division:  proc/nbgrp/npool/nimage =      40
     Waiting for input...
     Reading input from standard input

     Current dimensions of program PWSCF are:
     Max number of different atomic species (ntypx) = 10
     Max number of k-points (npk) =  40000
     Max angular momentum in pseudopotentials (lmaxx) =  3

     Subspace diagonalization in iterative solution of the eigenvalue problem:
     a serial algorithm will be used

     Found symmetry operation: I + (  0.5000  0.5000  0.0000)
     This is a supercell, fractional translations are disabled
     Message from routine setup:
     using ibrav=0 with symmetry is DISCOURAGED, use correct ibrav instead

     Parallelization info
     --------------------
     sticks:   dense  smooth     PW     G-vecs:    dense   smooth      PW
     Min          16      16      5                  328      328      57
     Max          17      17      6                  335      335      60
     Sum         673     673    213                13301    13301    2325



     bravais-lattice index     =            0
     lattice parameter (alat)  =      10.3330  a.u.
     unit-cell volume          =    1103.2623 (a.u.)^3
     number of atoms/cell      =            8
     number of atomic types    =            1
     number of electrons       =        32.00
     number of Kohn-Sham states=           16
     kinetic-energy cutoff     =      20.0000  Ry
     charge density cutoff     =      80.0000  Ry
     scf convergence threshold =      1.0E-06
     mixing beta               =       0.7000
     number of iterations used =            8  plain     mixing
     Exchange-correlation=  SLA  PW   PBE  PBE
                           (   1   4   3   4   0   0   0)

     celldm(1)=  10.332996  celldm(2)=   0.000000  celldm(3)=   0.000000
     celldm(4)=   0.000000  celldm(5)=   0.000000  celldm(6)=   0.000000

     crystal axes: (cart. coord. in units of alat)
               a(1) = (   1.000000   0.000000   0.000000 )  
               a(2) = (   0.000000   1.000000   0.000000 )  
               a(3) = (   0.000000   0.000000   1.000000 )  

     reciprocal axes: (cart. coord. in units 2 pi/alat)
               b(1) = (  1.000000  0.000000  0.000000 )  
               b(2) = (  0.000000  1.000000  0.000000 )  
               b(3) = (  0.000000  0.000000  1.000000 )  


     PseudoPot. # 1 for Si read from file:
     ./Si.pbe-rrkj.UPF
     MD5 check sum: cf7ab5690cd9a85b22c4813f7e365554
     Pseudo is Norm-conserving, Zval =  4.0
     Generated by new atomic code, or converted to UPF format
     Using radial grid of  883 points,  3 beta functions with: 
                l(1) =   0
                l(2) =   0
                l(3) =   1

     atomic species   valence    mass     pseudopotential
        Si             4.00    28.08600     Si( 1.00)

     24 Sym. Ops. (no inversion) found



   Cartesian axes

     site n.     atom                  positions (alat units)
         1           Si  tau(   1) = (   0.5000000   0.5000000   0.0000000  )
         2           Si  tau(   2) = (   0.0000000   0.0000000   0.0000000  )
         3           Si  tau(   3) = (   0.5000000   0.0000000   0.5000000  )
         4           Si  tau(   4) = (   0.0000000   0.5000000   0.5000000  )
         5           Si  tau(   5) = (   0.7500000   0.7500000   0.2500000  )
         6           Si  tau(   6) = (   0.2500000   0.2500000   0.2500000  )
         7           Si  tau(   7) = (   0.7500000   0.2500000   0.7500000  )
         8           Si  tau(   8) = (   0.2500000   0.7500000   0.7500000  )

     number of k points=    10
                       cart. coord. in units 2pi/alat
        k(    1) = (   0.1000000   0.1000000   0.1000000), wk =   0.1280000
        k(    2) = (   0.1000000   0.1000000   0.3000000), wk =   0.3840000
        k(    3) = (   0.1000000   0.1000000  -0.5000000), wk =   0.1920000
        k(    4) = (   0.1000000   0.3000000   0.3000000), wk =   0.3840000
        k(    5) = (   0.1000000   0.3000000  -0.5000000), wk =   0.3840000
        k(    6) = (   0.1000000  -0.5000000  -0.5000000), wk =   0.0960000
        k(    7) = (   0.3000000   0.3000000   0.3000000), wk =   0.1280000
        k(    8) = (   0.3000000   0.3000000  -0.5000000), wk =   0.1920000
        k(    9) = (   0.3000000  -0.5000000  -0.5000000), wk =   0.0960000
        k(   10) = (  -0.5000000  -0.5000000  -0.5000000), wk =   0.0160000

     Dense  grid:    13301 G-vectors     FFT dimensions: (  30,  30,  30)

     Estimated max dynamical RAM per process >       0.56 MB

     Estimated total dynamical RAM >      22.25 MB

     Initial potential from superposition of free atoms

     starting charge   31.99557, renormalised to   32.00000
     Starting wfcs are   32 randomized atomic wfcs

     total cpu time spent up to now is       18.2 secs

     Self-consistent Calculation

     iteration #  1     ecut=    20.00 Ry     beta= 0.70
     Davidson diagonalization with overlap
     ethr =  1.00E-02,  avg # of iterations =  2.0

     Threshold (ethr) on eigenvalues was too large:
     Diagonalizing with lowered threshold

     Davidson diagonalization with overlap
     ethr =  5.73E-04,  avg # of iterations =  2.0

     total cpu time spent up to now is       23.2 secs

     total energy              =     -62.95540009 Ry
     estimated scf accuracy    <       0.21531353 Ry

     iteration #  2     ecut=    20.00 Ry     beta= 0.70
     Davidson diagonalization with overlap
     ethr =  6.73E-04,  avg # of iterations =  1.0

     total cpu time spent up to now is       25.2 secs

     total energy              =     -62.96221458 Ry
     estimated scf accuracy    <       0.01229125 Ry

     iteration #  3     ecut=    20.00 Ry     beta= 0.70
     Davidson diagonalization with overlap
     ethr =  3.84E-05,  avg # of iterations =  2.1

     total cpu time spent up to now is       28.2 secs

     total energy              =     -62.96458522 Ry
     estimated scf accuracy    <       0.00037153 Ry

     iteration #  4     ecut=    20.00 Ry     beta= 0.70
     Davidson diagonalization with overlap
     ethr =  1.16E-06,  avg # of iterations =  5.2

     total cpu time spent up to now is       34.9 secs

     total energy              =     -62.96487282 Ry
     estimated scf accuracy    <       0.00001960 Ry

     iteration #  5     ecut=    20.00 Ry     beta= 0.70
     Davidson diagonalization with overlap
     ethr =  6.13E-08,  avg # of iterations =  4.6

     total cpu time spent up to now is       39.2 secs

     End of self-consistent calculation

          k = 0.1000 0.1000 0.1000 (  1686 PWs)   bands (ev):

    -5.6172  -2.3687  -2.3686  -2.3686  -0.8958  -0.8958  -0.8958   2.8133
     2.8134   2.8134   3.3327   3.3327   3.3328   4.8904   5.8241   5.8241

          k = 0.1000 0.1000 0.3000 (  1656 PWs)   bands (ev):

    -5.2771  -3.6234  -2.2452  -2.2451  -0.9155  -0.9154   0.6717   2.1921
     2.1921   3.1050   3.1050   3.2288   3.6028   3.6364   5.0314   5.1948

          k = 0.1000 0.1000-0.5000 (  1664 PWs)   bands (ev):

    -4.6058  -4.6057  -2.1550  -2.1549  -0.9468  -0.9467   1.9805   1.9805
     2.1992   2.1993   2.8547   2.8547   4.0680   4.0681   4.2231   4.2232

          k = 0.1000 0.3000 0.3000 (  1659 PWs)   bands (ev):

    -4.9472  -3.3721  -3.3720  -2.4798  -0.7780   0.2315   0.2315   1.8798
     2.4345   2.6715   2.6715   3.6608   3.6608   3.8529   4.2908   5.5217

          k = 0.1000 0.3000-0.5000 (  1662 PWs)   bands (ev):

    -4.3009  -4.3008  -2.9337  -2.9336  -0.3577  -0.3577   1.3096   1.3097
     2.1250   2.1251   3.4102   3.4103   3.8404   3.8404   4.7003   4.7004

          k = 0.1000-0.5000-0.5000 (  1648 PWs)   bands (ev):

    -3.7183  -3.7182  -3.7182  -3.7182   0.3954   0.3955   0.3955   0.3955
     2.6437   2.6438   2.6438   2.6438   4.7284   4.7284   4.7285   4.7285

          k = 0.3000 0.3000 0.3000 (  1673 PWs)   bands (ev):

    -4.6341  -3.2281  -3.2280  -3.2280  -0.3661  -0.3661  -0.3661   1.3066
     2.9522   2.9523   2.9523   4.1073   4.1073   4.1074   5.1213   5.1213

          k = 0.3000 0.3000-0.5000 (  1682 PWs)   bands (ev):

    -4.0340  -4.0340  -3.1214  -3.1213  -0.6865  -0.6865   0.3326   0.3326
     3.1197   3.1198   4.2242   4.2242   4.3653   4.3654   4.5706   4.5707

          k = 0.3000-0.5000-0.5000 (  1656 PWs)   bands (ev):

    -3.5712  -3.5710  -3.5710  -3.5710  -0.4394  -0.4394  -0.4394  -0.4393
     3.9564   3.9565   3.9565   3.9566   4.7961   4.7961   4.7962   4.7962

          k =-0.5000-0.5000-0.5000 (  1640 PWs)   bands (ev):

    -3.4621  -3.4619  -3.4619  -3.4619  -0.8238  -0.8238  -0.8238  -0.8238
     4.8409   4.8409   4.8409   4.8410   4.8410   4.8410   4.8410   4.8410

     highest occupied level (ev):     5.8241

!    total energy              =     -62.96488356 Ry
     estimated scf accuracy    <       0.00000075 Ry

     The total energy is the sum of the following terms:
     one-electron contribution =      18.47831524 Ry
     hartree contribution      =       4.44838811 Ry
     xc contribution           =     -19.16261886 Ry
     ewald contribution        =     -66.72896804 Ry

     convergence has been achieved in   5 iterations

     Forces acting on atoms (cartesian axes, Ry/au):

     atom    1 type  1   force =     0.00000000    0.00000000    0.00000000
     atom    2 type  1   force =     0.00000000    0.00000000    0.00000000
     atom    3 type  1   force =     0.00000000    0.00000000    0.00000000
     atom    4 type  1   force =     0.00000000    0.00000000    0.00000000
     atom    5 type  1   force =     0.00000158    0.00000158   -0.00000158
     atom    6 type  1   force =    -0.00000158   -0.00000158   -0.00000158
     atom    7 type  1   force =     0.00000158   -0.00000158    0.00000158
     atom    8 type  1   force =    -0.00000158    0.00000158    0.00000158

     Total force =     0.000005     Total SCF correction =     0.000097
     SCF correction compared to forces is large: reduce conv_thr to get better values


     Computing stress (Cartesian axis) and pressure

          total   stress  (Ry/bohr**3)                   (kbar)     P=        2.06
   0.00001401   0.00000000   0.00000000            2.06        0.00        0.00
   0.00000000   0.00001401   0.00000000            0.00        2.06        0.00
   0.00000000   0.00000000   0.00001401            0.00        0.00        2.06


     Writing output data file ./Si8.save/

     init_run     :      8.97s CPU     18.14s WALL (       1 calls)
     electrons    :     42.35s CPU     20.95s WALL (       1 calls)
     forces       :      0.01s CPU      0.01s WALL (       1 calls)
     stress       :      0.02s CPU      0.02s WALL (       1 calls)

     Called by init_run:
     wfcinit      :      8.96s CPU     18.12s WALL (       1 calls)
     potinit      :      0.00s CPU      0.01s WALL (       1 calls)
     hinit0       :      0.00s CPU      0.01s WALL (       1 calls)

     Called by electrons:
     c_bands      :     40.97s CPU     20.28s WALL (       6 calls)
     sum_band     :      1.25s CPU      0.55s WALL (       6 calls)
     v_of_rho     :      0.00s CPU      0.01s WALL (       6 calls)
     mix_rho      :      0.00s CPU      0.01s WALL (       6 calls)

     Called by c_bands:
     init_us_2    :      0.00s CPU      0.00s WALL (     150 calls)
     cegterg      :     37.00s CPU     18.54s WALL (      60 calls)

     Called by *egterg:
     cdiaghg      :     11.96s CPU      7.29s WALL (     219 calls)
     h_psi        :     22.84s CPU     17.15s WALL (     239 calls)
     g_psi        :      0.00s CPU      0.00s WALL (     169 calls)

     Called by h_psi:
     h_psi:calbec :      1.75s CPU      4.68s WALL (     239 calls)
     vloc_psi     :     20.59s CPU     10.17s WALL (     239 calls)
     add_vuspsi   :      0.49s CPU      2.29s WALL (     239 calls)

     General routines
     calbec       :      1.76s CPU      4.69s WALL (     289 calls)
     fft          :      0.03s CPU      0.02s WALL (      68 calls)
     ffts         :      0.00s CPU      0.00s WALL (       6 calls)
     fftw         :     21.77s CPU     10.70s WALL (    7264 calls)

     Parallel routines
     fft_scatt_xy :      0.05s CPU      0.03s WALL (    7338 calls)
     fft_scatt_yz :     21.63s CPU     10.52s WALL (    7338 calls)

     PWSCF        :     51.50s CPU     39.36s WALL


   This run was terminated on:  21:56:32  24Feb2022            

=------------------------------------------------------------------------------=
   JOB DONE.
=------------------------------------------------------------------------------=
