
     Program PWSCF v.6.7MaX starts on 24Feb2022 at 21:58:20 

     This program is part of the open-source Quantum ESPRESSO suite
     for quantum simulation of materials; please cite
         "P. Giannozzi et al., J. Phys.:Condens. Matter 21 395502 (2009);
         "P. Giannozzi et al., J. Phys.:Condens. Matter 29 465901 (2017);
          URL http://www.quantum-espresso.org", 
     in publications or presentations arising from this work. More details at
     http://www.quantum-espresso.org/quote

     Parallel version (MPI), running on    40 processors

     MPI processes distributed on     1 nodes
     R & G space division:  proc/nbgrp/npool/nimage =      40
     Waiting for input...
     Reading input from standard input

     Current dimensions of program PWSCF are:
     Max number of different atomic species (ntypx) = 10
     Max number of k-points (npk) =  40000
     Max angular momentum in pseudopotentials (lmaxx) =  3

     Subspace diagonalization in iterative solution of the eigenvalue problem:
     a serial algorithm will be used

     Found symmetry operation: I + (  0.5000  0.5000  0.0000)
     This is a supercell, fractional translations are disabled
     Message from routine setup:
     using ibrav=0 with symmetry is DISCOURAGED, use correct ibrav instead

     Parallelization info
     --------------------
     sticks:   dense  smooth     PW     G-vecs:    dense   smooth      PW
     Min          42      42     12                 1312     1312     194
     Max          43      43     13                 1315     1315     197
     Sum        1693    1693    481                52515    52515    7809



     bravais-lattice index     =            0
     lattice parameter (alat)  =      10.3330  a.u.
     unit-cell volume          =    1103.2623 (a.u.)^3
     number of atoms/cell      =            8
     number of atomic types    =            1
     number of electrons       =        32.00
     number of Kohn-Sham states=           16
     kinetic-energy cutoff     =      50.0000  Ry
     charge density cutoff     =     200.0000  Ry
     scf convergence threshold =      1.0E-06
     mixing beta               =       0.7000
     number of iterations used =            8  plain     mixing
     Exchange-correlation=  SLA  PW   PBE  PBE
                           (   1   4   3   4   0   0   0)

     celldm(1)=  10.332996  celldm(2)=   0.000000  celldm(3)=   0.000000
     celldm(4)=   0.000000  celldm(5)=   0.000000  celldm(6)=   0.000000

     crystal axes: (cart. coord. in units of alat)
               a(1) = (   1.000000   0.000000   0.000000 )  
               a(2) = (   0.000000   1.000000   0.000000 )  
               a(3) = (   0.000000   0.000000   1.000000 )  

     reciprocal axes: (cart. coord. in units 2 pi/alat)
               b(1) = (  1.000000  0.000000  0.000000 )  
               b(2) = (  0.000000  1.000000  0.000000 )  
               b(3) = (  0.000000  0.000000  1.000000 )  


     PseudoPot. # 1 for Si read from file:
     ./Si.pbe-rrkj.UPF
     MD5 check sum: cf7ab5690cd9a85b22c4813f7e365554
     Pseudo is Norm-conserving, Zval =  4.0
     Generated by new atomic code, or converted to UPF format
     Using radial grid of  883 points,  3 beta functions with: 
                l(1) =   0
                l(2) =   0
                l(3) =   1

     atomic species   valence    mass     pseudopotential
        Si             4.00    28.08600     Si( 1.00)

     24 Sym. Ops. (no inversion) found



   Cartesian axes

     site n.     atom                  positions (alat units)
         1           Si  tau(   1) = (   0.5000000   0.5000000   0.0000000  )
         2           Si  tau(   2) = (   0.0000000   0.0000000   0.0000000  )
         3           Si  tau(   3) = (   0.5000000   0.0000000   0.5000000  )
         4           Si  tau(   4) = (   0.0000000   0.5000000   0.5000000  )
         5           Si  tau(   5) = (   0.7500000   0.7500000   0.2500000  )
         6           Si  tau(   6) = (   0.2500000   0.2500000   0.2500000  )
         7           Si  tau(   7) = (   0.7500000   0.2500000   0.7500000  )
         8           Si  tau(   8) = (   0.2500000   0.7500000   0.7500000  )

     number of k points=     4
                       cart. coord. in units 2pi/alat
        k(    1) = (   0.1250000   0.1250000   0.1250000), wk =   0.2500000
        k(    2) = (   0.1250000   0.1250000   0.3750000), wk =   0.7500000
        k(    3) = (   0.1250000   0.3750000   0.3750000), wk =   0.7500000
        k(    4) = (   0.3750000   0.3750000   0.3750000), wk =   0.2500000

     Dense  grid:    52515 G-vectors     FFT dimensions: (  48,  48,  48)

     Estimated max dynamical RAM per process >       1.57 MB

     Estimated total dynamical RAM >      62.98 MB

     Initial potential from superposition of free atoms

     starting charge   31.99557, renormalised to   32.00000
     Starting wfcs are   32 randomized atomic wfcs

     total cpu time spent up to now is        5.6 secs

     Self-consistent Calculation

     iteration #  1     ecut=    50.00 Ry     beta= 0.70
     Davidson diagonalization with overlap
     ethr =  1.00E-02,  avg # of iterations =  2.0

     Threshold (ethr) on eigenvalues was too large:
     Diagonalizing with lowered threshold

     Davidson diagonalization with overlap
     ethr =  5.70E-04,  avg # of iterations =  2.0

     total cpu time spent up to now is       36.2 secs

     total energy              =     -62.95741584 Ry
     estimated scf accuracy    <       0.21485102 Ry

     iteration #  2     ecut=    50.00 Ry     beta= 0.70
     Davidson diagonalization with overlap
     ethr =  6.71E-04,  avg # of iterations =  1.0

     total cpu time spent up to now is       46.6 secs

     total energy              =     -62.96422559 Ry
     estimated scf accuracy    <       0.01241694 Ry

     iteration #  3     ecut=    50.00 Ry     beta= 0.70
     Davidson diagonalization with overlap
     ethr =  3.88E-05,  avg # of iterations =  2.2

     total cpu time spent up to now is       64.0 secs

     total energy              =     -62.96657548 Ry
     estimated scf accuracy    <       0.00035999 Ry

     iteration #  4     ecut=    50.00 Ry     beta= 0.70
     Davidson diagonalization with overlap
     ethr =  1.12E-06,  avg # of iterations =  5.2

     total cpu time spent up to now is       87.4 secs

     total energy              =     -62.96684621 Ry
     estimated scf accuracy    <       0.00001675 Ry

     iteration #  5     ecut=    50.00 Ry     beta= 0.70
     Davidson diagonalization with overlap
     ethr =  5.23E-08,  avg # of iterations =  5.0

     total cpu time spent up to now is      110.2 secs

     End of self-consistent calculation

          k = 0.1250 0.1250 0.1250 (  6598 PWs)   bands (ev):

    -5.5463  -2.5168  -2.5168  -2.5161  -0.7126  -0.7126  -0.7122   2.6623
     2.6623   2.6625   3.3906   3.3909   3.3909   4.4438   5.7343   5.7343

          k = 0.1250 0.1250 0.3750 (  6603 PWs)   bands (ev):

    -5.0187  -3.9878  -2.3467  -2.3462  -0.8112  -0.8110   1.1448   2.0539
     2.0541   2.8409   3.1281   3.1281   3.4085   3.8569   4.7292   4.8000

          k = 0.1250 0.3750 0.3750 (  6560 PWs)   bands (ev):

    -4.5197  -3.5714  -3.5709  -2.8822  -0.5167   0.2679   0.2679   1.4674
     2.1161   2.7709   2.7709   3.7591   4.1319   4.1324   4.1698   5.2558

          k = 0.3750 0.3750 0.3750 (  6590 PWs)   bands (ev):

    -4.0858  -3.3774  -3.3774  -3.3766  -0.6110  -0.6109  -0.6109   0.1757
     3.7832   3.7832   3.7839   4.4860   4.4863   4.4863   4.9497   4.9497

     highest occupied level (ev):     5.7343

!    total energy              =     -62.96685537 Ry
     estimated scf accuracy    <       0.00000017 Ry

     The total energy is the sum of the following terms:
     one-electron contribution =      18.47492296 Ry
     hartree contribution      =       4.45130136 Ry
     xc contribution           =     -19.16411186 Ry
     ewald contribution        =     -66.72896783 Ry

     convergence has been achieved in   5 iterations

     Forces acting on atoms (cartesian axes, Ry/au):

     atom    1 type  1   force =     0.00000000    0.00000000    0.00000000
     atom    2 type  1   force =     0.00000000    0.00000000    0.00000000
     atom    3 type  1   force =     0.00000000    0.00000000    0.00000000
     atom    4 type  1   force =     0.00000000    0.00000000    0.00000000
     atom    5 type  1   force =     0.00001297    0.00001297   -0.00001297
     atom    6 type  1   force =    -0.00001297   -0.00001297   -0.00001297
     atom    7 type  1   force =     0.00001297   -0.00001297    0.00001297
     atom    8 type  1   force =    -0.00001297    0.00001297    0.00001297

     Total force =     0.000045     Total SCF correction =     0.000497
     SCF correction compared to forces is large: reduce conv_thr to get better values


     Computing stress (Cartesian axis) and pressure

          total   stress  (Ry/bohr**3)                   (kbar)     P=        3.47
   0.00002359   0.00000000   0.00000000            3.47        0.00        0.00
   0.00000000   0.00002359   0.00000000            0.00        3.47        0.00
   0.00000000   0.00000000   0.00002359            0.00        0.00        3.47


     Writing output data file ./Si8.save/

     init_run     :      2.30s CPU      5.49s WALL (       1 calls)
     electrons    :     45.79s CPU    104.52s WALL (       1 calls)
     forces       :      1.61s CPU      4.55s WALL (       1 calls)
     stress       :      0.50s CPU      1.41s WALL (       1 calls)

     Called by init_run:
     wfcinit      :      2.28s CPU      5.46s WALL (       1 calls)
     potinit      :      0.01s CPU      0.01s WALL (       1 calls)
     hinit0       :      0.01s CPU      0.01s WALL (       1 calls)

     Called by electrons:
     c_bands      :     45.42s CPU    103.93s WALL (       6 calls)
     sum_band     :      0.31s CPU      0.50s WALL (       6 calls)
     v_of_rho     :      0.02s CPU      0.02s WALL (       6 calls)
     mix_rho      :      0.00s CPU      0.00s WALL (       6 calls)

     Called by c_bands:
     init_us_2    :      0.00s CPU      0.00s WALL (      60 calls)
     cegterg      :     43.15s CPU     98.38s WALL (      24 calls)

     Called by *egterg:
     cdiaghg      :      4.55s CPU      6.94s WALL (      90 calls)
     h_psi        :     14.68s CPU     37.17s WALL (      98 calls)
     g_psi        :      0.00s CPU      0.00s WALL (      70 calls)

     Called by h_psi:
     h_psi:calbec :      9.34s CPU     25.26s WALL (      98 calls)
     vloc_psi     :      3.88s CPU      5.26s WALL (      98 calls)
     add_vuspsi   :      1.46s CPU      6.64s WALL (      98 calls)

     General routines
     calbec       :     11.35s CPU     30.88s WALL (     118 calls)
     fft          :      0.01s CPU      0.01s WALL (      68 calls)
     ffts         :      0.00s CPU      0.00s WALL (       6 calls)
     fftw         :      4.17s CPU      5.74s WALL (    2922 calls)

     Parallel routines
     fft_scatt_xy :      0.02s CPU      0.02s WALL (    2996 calls)
     fft_scatt_yz :      4.08s CPU      5.64s WALL (    2996 calls)

     PWSCF        :     50.33s CPU   1m56.24s WALL


   This run was terminated on:  22: 0:16  24Feb2022            

=------------------------------------------------------------------------------=
   JOB DONE.
=------------------------------------------------------------------------------=
