
     Program PWSCF v.6.7MaX starts on 24Feb2022 at 22:39:39 

     This program is part of the open-source Quantum ESPRESSO suite
     for quantum simulation of materials; please cite
         "P. Giannozzi et al., J. Phys.:Condens. Matter 21 395502 (2009);
         "P. Giannozzi et al., J. Phys.:Condens. Matter 29 465901 (2017);
          URL http://www.quantum-espresso.org", 
     in publications or presentations arising from this work. More details at
     http://www.quantum-espresso.org/quote

     Parallel version (MPI), running on    40 processors

     MPI processes distributed on     1 nodes
     R & G space division:  proc/nbgrp/npool/nimage =      40
     Waiting for input...
     Reading input from standard input

     Current dimensions of program PWSCF are:
     Max number of different atomic species (ntypx) = 10
     Max number of k-points (npk) =  40000
     Max angular momentum in pseudopotentials (lmaxx) =  3

     Subspace diagonalization in iterative solution of the eigenvalue problem:
     a serial algorithm will be used

     Found symmetry operation: I + (  0.5000  0.5000  0.0000)
     This is a supercell, fractional translations are disabled
     Message from routine setup:
     using ibrav=0 with symmetry is DISCOURAGED, use correct ibrav instead

     Parallelization info
     --------------------
     sticks:   dense  smooth     PW     G-vecs:    dense   smooth      PW
     Min          76      76     21                 3178     3178     469
     Max          77      77     22                 3181     3181     472
     Sum        3061    3061    853               127171   127171   18805



     bravais-lattice index     =            0
     lattice parameter (alat)  =      10.3330  a.u.
     unit-cell volume          =    1103.2623 (a.u.)^3
     number of atoms/cell      =            8
     number of atomic types    =            1
     number of electrons       =        32.00
     number of Kohn-Sham states=           16
     kinetic-energy cutoff     =      90.0000  Ry
     charge density cutoff     =     360.0000  Ry
     scf convergence threshold =      1.0E-06
     mixing beta               =       0.7000
     number of iterations used =            8  plain     mixing
     Exchange-correlation=  SLA  PW   PBE  PBE
                           (   1   4   3   4   0   0   0)

     celldm(1)=  10.332996  celldm(2)=   0.000000  celldm(3)=   0.000000
     celldm(4)=   0.000000  celldm(5)=   0.000000  celldm(6)=   0.000000

     crystal axes: (cart. coord. in units of alat)
               a(1) = (   1.000000   0.000000   0.000000 )  
               a(2) = (   0.000000   1.000000   0.000000 )  
               a(3) = (   0.000000   0.000000   1.000000 )  

     reciprocal axes: (cart. coord. in units 2 pi/alat)
               b(1) = (  1.000000  0.000000  0.000000 )  
               b(2) = (  0.000000  1.000000  0.000000 )  
               b(3) = (  0.000000  0.000000  1.000000 )  


     PseudoPot. # 1 for Si read from file:
     ./Si.pbe-rrkj.UPF
     MD5 check sum: cf7ab5690cd9a85b22c4813f7e365554
     Pseudo is Norm-conserving, Zval =  4.0
     Generated by new atomic code, or converted to UPF format
     Using radial grid of  883 points,  3 beta functions with: 
                l(1) =   0
                l(2) =   0
                l(3) =   1

     atomic species   valence    mass     pseudopotential
        Si             4.00    28.08600     Si( 1.00)

     24 Sym. Ops. (no inversion) found



   Cartesian axes

     site n.     atom                  positions (alat units)
         1           Si  tau(   1) = (   0.5000000   0.5000000   0.0000000  )
         2           Si  tau(   2) = (   0.0000000   0.0000000   0.0000000  )
         3           Si  tau(   3) = (   0.5000000   0.0000000   0.5000000  )
         4           Si  tau(   4) = (   0.0000000   0.5000000   0.5000000  )
         5           Si  tau(   5) = (   0.7500000   0.7500000   0.2500000  )
         6           Si  tau(   6) = (   0.2500000   0.2500000   0.2500000  )
         7           Si  tau(   7) = (   0.7500000   0.2500000   0.7500000  )
         8           Si  tau(   8) = (   0.2500000   0.7500000   0.7500000  )

     number of k points=    10
                       cart. coord. in units 2pi/alat
        k(    1) = (   0.1000000   0.1000000   0.1000000), wk =   0.1280000
        k(    2) = (   0.1000000   0.1000000   0.3000000), wk =   0.3840000
        k(    3) = (   0.1000000   0.1000000  -0.5000000), wk =   0.1920000
        k(    4) = (   0.1000000   0.3000000   0.3000000), wk =   0.3840000
        k(    5) = (   0.1000000   0.3000000  -0.5000000), wk =   0.3840000
        k(    6) = (   0.1000000  -0.5000000  -0.5000000), wk =   0.0960000
        k(    7) = (   0.3000000   0.3000000   0.3000000), wk =   0.1280000
        k(    8) = (   0.3000000   0.3000000  -0.5000000), wk =   0.1920000
        k(    9) = (   0.3000000  -0.5000000  -0.5000000), wk =   0.0960000
        k(   10) = (  -0.5000000  -0.5000000  -0.5000000), wk =   0.0160000

     Dense  grid:   127171 G-vectors     FFT dimensions: (  64,  64,  64)

     Estimated max dynamical RAM per process >       3.90 MB

     Estimated total dynamical RAM >     155.96 MB

     Initial potential from superposition of free atoms

     starting charge   31.99557, renormalised to   32.00000
     Starting wfcs are   32 randomized atomic wfcs

     total cpu time spent up to now is       21.0 secs

     Self-consistent Calculation

     iteration #  1     ecut=    90.00 Ry     beta= 0.70
     Davidson diagonalization with overlap
     ethr =  1.00E-02,  avg # of iterations =  2.0

     Threshold (ethr) on eigenvalues was too large:
     Diagonalizing with lowered threshold

     Davidson diagonalization with overlap
     ethr =  5.69E-04,  avg # of iterations =  2.0

     total cpu time spent up to now is      141.0 secs

     total energy              =     -62.95808267 Ry
     estimated scf accuracy    <       0.21430241 Ry

     iteration #  2     ecut=    90.00 Ry     beta= 0.70
     Davidson diagonalization with overlap
     ethr =  6.70E-04,  avg # of iterations =  1.0

     total cpu time spent up to now is      181.2 secs

     total energy              =     -62.96488650 Ry
     estimated scf accuracy    <       0.01244054 Ry

     iteration #  3     ecut=    90.00 Ry     beta= 0.70
     Davidson diagonalization with overlap
     ethr =  3.89E-05,  avg # of iterations =  2.2

     total cpu time spent up to now is      242.6 secs

     total energy              =     -62.96722373 Ry
     estimated scf accuracy    <       0.00035959 Ry

     iteration #  4     ecut=    90.00 Ry     beta= 0.70
     Davidson diagonalization with overlap
     ethr =  1.12E-06,  avg # of iterations =  5.2

     total cpu time spent up to now is      354.5 secs

     total energy              =     -62.96751485 Ry
     estimated scf accuracy    <       0.00001492 Ry

     iteration #  5     ecut=    90.00 Ry     beta= 0.70
     Davidson diagonalization with overlap
     ethr =  4.66E-08,  avg # of iterations =  4.8

     total cpu time spent up to now is      454.7 secs

     End of self-consistent calculation

          k = 0.1000 0.1000 0.1000 ( 15897 PWs)   bands (ev):

    -5.6184  -2.3698  -2.3698  -2.3695  -0.8972  -0.8972  -0.8969   2.8118
     2.8118   2.8120   3.3312   3.3314   3.3314   4.8890   5.8225   5.8225

          k = 0.1000 0.1000 0.3000 ( 15933 PWs)   bands (ev):

    -5.2782  -3.6245  -2.2464  -2.2462  -0.9169  -0.9167   0.6704   2.1907
     2.1908   3.1034   3.1035   3.2273   3.6010   3.6346   5.0297   5.1929

          k = 0.1000 0.1000-0.5000 ( 15896 PWs)   bands (ev):

    -4.6070  -4.6067  -2.1563  -2.1560  -0.9481  -0.9479   1.9792   1.9793
     2.1978   2.1979   2.8531   2.8531   4.0663   4.0665   4.2214   4.2218

          k = 0.1000 0.3000 0.3000 ( 15922 PWs)   bands (ev):

    -4.9483  -3.3732  -3.3730  -2.4809  -0.7792   0.2302   0.2303   1.8787
     2.4331   2.6701   2.6701   3.6591   3.6593   3.8511   4.2892   5.5197

          k = 0.1000 0.3000-0.5000 ( 15912 PWs)   bands (ev):

    -4.3021  -4.3017  -2.9349  -2.9346  -0.3590  -0.3589   1.3082   1.3083
     2.1237   2.1239   3.4087   3.4089   3.8389   3.8390   4.6985   4.6986

          k = 0.1000-0.5000-0.5000 ( 15900 PWs)   bands (ev):

    -3.7195  -3.7194  -3.7194  -3.7188   0.3940   0.3941   0.3941   0.3943
     2.6422   2.6424   2.6424   2.6426   4.7262   4.7264   4.7266   4.7266

          k = 0.3000 0.3000 0.3000 ( 15876 PWs)   bands (ev):

    -4.6351  -3.2293  -3.2293  -3.2289  -0.3673  -0.3673  -0.3673   1.3053
     2.9508   2.9508   2.9511   4.1055   4.1057   4.1057   5.1196   5.1196

          k = 0.3000 0.3000-0.5000 ( 15900 PWs)   bands (ev):

    -4.0353  -4.0349  -3.1226  -3.1223  -0.6876  -0.6876   0.3314   0.3316
     3.1182   3.1186   4.2227   4.2227   4.3639   4.3639   4.5689   4.5693

          k = 0.3000-0.5000-0.5000 ( 15900 PWs)   bands (ev):

    -3.5724  -3.5723  -3.5723  -3.5717  -0.4406  -0.4404  -0.4404  -0.4403
     3.9548   3.9551   3.9551   3.9554   4.7940   4.7941   4.7944   4.7944

          k =-0.5000-0.5000-0.5000 ( 15984 PWs)   bands (ev):

    -3.4633  -3.4633  -3.4633  -3.4626  -0.8250  -0.8248  -0.8248  -0.8248
     4.8387   4.8387   4.8388   4.8388   4.8388   4.8392   4.8392   4.8392

     highest occupied level (ev):     5.8225

!    total energy              =     -62.96752497 Ry
     estimated scf accuracy    <       0.00000035 Ry

     The total energy is the sum of the following terms:
     one-electron contribution =      18.47550161 Ry
     hartree contribution      =       4.44902122 Ry
     xc contribution           =     -19.16307998 Ry
     ewald contribution        =     -66.72896782 Ry

     convergence has been achieved in   5 iterations

     Forces acting on atoms (cartesian axes, Ry/au):

     atom    1 type  1   force =     0.00000000    0.00000000    0.00000000
     atom    2 type  1   force =     0.00000000    0.00000000    0.00000000
     atom    3 type  1   force =     0.00000000    0.00000000    0.00000000
     atom    4 type  1   force =     0.00000000    0.00000000    0.00000000
     atom    5 type  1   force =     0.00000726    0.00000726   -0.00000726
     atom    6 type  1   force =    -0.00000726   -0.00000726   -0.00000726
     atom    7 type  1   force =     0.00000726   -0.00000726    0.00000726
     atom    8 type  1   force =    -0.00000726    0.00000726    0.00000726

     Total force =     0.000025     Total SCF correction =     0.000296
     SCF correction compared to forces is large: reduce conv_thr to get better values


     Computing stress (Cartesian axis) and pressure

          total   stress  (Ry/bohr**3)                   (kbar)     P=        3.43
   0.00002330   0.00000000   0.00000000            3.43        0.00        0.00
   0.00000000   0.00002330   0.00000000            0.00        3.43        0.00
   0.00000000   0.00000000   0.00002330            0.00        0.00        3.43


     Writing output data file ./Si8.save/

     init_run     :      7.33s CPU     20.85s WALL (       1 calls)
     electrons    :    176.40s CPU    433.71s WALL (       1 calls)
     forces       :      6.73s CPU     19.43s WALL (       1 calls)
     stress       :      2.52s CPU      5.75s WALL (       1 calls)

     Called by init_run:
     wfcinit      :      7.27s CPU     20.78s WALL (       1 calls)
     potinit      :      0.01s CPU      0.02s WALL (       1 calls)
     hinit0       :      0.01s CPU      0.01s WALL (       1 calls)

     Called by electrons:
     c_bands      :    175.66s CPU    432.79s WALL (       6 calls)
     sum_band     :      0.66s CPU      0.82s WALL (       6 calls)
     v_of_rho     :      0.03s CPU      0.03s WALL (       6 calls)
     mix_rho      :      0.00s CPU      0.00s WALL (       6 calls)

     Called by c_bands:
     init_us_2    :      0.01s CPU      0.04s WALL (     150 calls)
     cegterg      :    165.33s CPU    415.53s WALL (      60 calls)

     Called by *egterg:
     cdiaghg      :     15.34s CPU     28.72s WALL (     222 calls)
     h_psi        :     54.63s CPU    168.57s WALL (     242 calls)
     g_psi        :      0.00s CPU      0.00s WALL (     172 calls)

     Called by h_psi:
     h_psi:calbec :     32.63s CPU    103.71s WALL (     242 calls)
     vloc_psi     :     12.29s CPU     16.24s WALL (     242 calls)
     add_vuspsi   :      9.71s CPU     48.52s WALL (     242 calls)

     General routines
     calbec       :     41.46s CPU    127.79s WALL (     292 calls)
     fft          :      0.02s CPU      0.02s WALL (      68 calls)
     ffts         :      0.00s CPU      0.00s WALL (       6 calls)
     fftw         :     12.86s CPU     16.88s WALL (    7344 calls)

     Parallel routines
     fft_scatt_xy :      0.12s CPU      0.15s WALL (    7418 calls)
     fft_scatt_yz :     12.49s CPU     15.45s WALL (    7418 calls)

     PWSCF        :   3m13.26s CPU   8m 0.24s WALL


   This run was terminated on:  22:47:39  24Feb2022            

=------------------------------------------------------------------------------=
   JOB DONE.
=------------------------------------------------------------------------------=
