
     Program PWSCF v.6.7MaX starts on 24Feb2022 at 22:19:51 

     This program is part of the open-source Quantum ESPRESSO suite
     for quantum simulation of materials; please cite
         "P. Giannozzi et al., J. Phys.:Condens. Matter 21 395502 (2009);
         "P. Giannozzi et al., J. Phys.:Condens. Matter 29 465901 (2017);
          URL http://www.quantum-espresso.org", 
     in publications or presentations arising from this work. More details at
     http://www.quantum-espresso.org/quote

     Parallel version (MPI), running on    40 processors

     MPI processes distributed on     1 nodes
     R & G space division:  proc/nbgrp/npool/nimage =      40
     Waiting for input...
     Reading input from standard input

     Current dimensions of program PWSCF are:
     Max number of different atomic species (ntypx) = 10
     Max number of k-points (npk) =  40000
     Max angular momentum in pseudopotentials (lmaxx) =  3

     Subspace diagonalization in iterative solution of the eigenvalue problem:
     a serial algorithm will be used

     Found symmetry operation: I + (  0.5000  0.5000  0.0000)
     This is a supercell, fractional translations are disabled
     Message from routine setup:
     using ibrav=0 with symmetry is DISCOURAGED, use correct ibrav instead

     Parallelization info
     --------------------
     sticks:   dense  smooth     PW     G-vecs:    dense   smooth      PW
     Min          42      42     12                 1312     1312     200
     Max          43      43     13                 1315     1315     205
     Sum        1693    1693    489                52515    52515    8025



     bravais-lattice index     =            0
     lattice parameter (alat)  =      10.3330  a.u.
     unit-cell volume          =    1103.2623 (a.u.)^3
     number of atoms/cell      =            8
     number of atomic types    =            1
     number of electrons       =        32.00
     number of Kohn-Sham states=           16
     kinetic-energy cutoff     =      50.0000  Ry
     charge density cutoff     =     200.0000  Ry
     scf convergence threshold =      1.0E-06
     mixing beta               =       0.7000
     number of iterations used =            8  plain     mixing
     Exchange-correlation=  SLA  PW   PBE  PBE
                           (   1   4   3   4   0   0   0)

     celldm(1)=  10.332996  celldm(2)=   0.000000  celldm(3)=   0.000000
     celldm(4)=   0.000000  celldm(5)=   0.000000  celldm(6)=   0.000000

     crystal axes: (cart. coord. in units of alat)
               a(1) = (   1.000000   0.000000   0.000000 )  
               a(2) = (   0.000000   1.000000   0.000000 )  
               a(3) = (   0.000000   0.000000   1.000000 )  

     reciprocal axes: (cart. coord. in units 2 pi/alat)
               b(1) = (  1.000000  0.000000  0.000000 )  
               b(2) = (  0.000000  1.000000  0.000000 )  
               b(3) = (  0.000000  0.000000  1.000000 )  


     PseudoPot. # 1 for Si read from file:
     ./Si.pbe-rrkj.UPF
     MD5 check sum: cf7ab5690cd9a85b22c4813f7e365554
     Pseudo is Norm-conserving, Zval =  4.0
     Generated by new atomic code, or converted to UPF format
     Using radial grid of  883 points,  3 beta functions with: 
                l(1) =   0
                l(2) =   0
                l(3) =   1

     atomic species   valence    mass     pseudopotential
        Si             4.00    28.08600     Si( 1.00)

     24 Sym. Ops. (no inversion) found



   Cartesian axes

     site n.     atom                  positions (alat units)
         1           Si  tau(   1) = (   0.5000000   0.5000000   0.0000000  )
         2           Si  tau(   2) = (   0.0000000   0.0000000   0.0000000  )
         3           Si  tau(   3) = (   0.5000000   0.0000000   0.5000000  )
         4           Si  tau(   4) = (   0.0000000   0.5000000   0.5000000  )
         5           Si  tau(   5) = (   0.7500000   0.7500000   0.2500000  )
         6           Si  tau(   6) = (   0.2500000   0.2500000   0.2500000  )
         7           Si  tau(   7) = (   0.7500000   0.2500000   0.7500000  )
         8           Si  tau(   8) = (   0.2500000   0.7500000   0.7500000  )

     number of k points=    20
                       cart. coord. in units 2pi/alat
        k(    1) = (   0.0625000   0.0625000   0.0625000), wk =   0.0312500
        k(    2) = (   0.0625000   0.0625000   0.1875000), wk =   0.0937500
        k(    3) = (   0.0625000   0.0625000   0.3125000), wk =   0.0937500
        k(    4) = (   0.0625000   0.0625000   0.4375000), wk =   0.0937500
        k(    5) = (   0.0625000   0.1875000   0.1875000), wk =   0.0937500
        k(    6) = (   0.0625000   0.1875000   0.3125000), wk =   0.1875000
        k(    7) = (   0.0625000   0.1875000   0.4375000), wk =   0.1875000
        k(    8) = (   0.0625000   0.3125000   0.3125000), wk =   0.0937500
        k(    9) = (   0.0625000   0.3125000   0.4375000), wk =   0.1875000
        k(   10) = (   0.0625000   0.4375000   0.4375000), wk =   0.0937500
        k(   11) = (   0.1875000   0.1875000   0.1875000), wk =   0.0312500
        k(   12) = (   0.1875000   0.1875000   0.3125000), wk =   0.0937500
        k(   13) = (   0.1875000   0.1875000   0.4375000), wk =   0.0937500
        k(   14) = (   0.1875000   0.3125000   0.3125000), wk =   0.0937500
        k(   15) = (   0.1875000   0.3125000   0.4375000), wk =   0.1875000
        k(   16) = (   0.1875000   0.4375000   0.4375000), wk =   0.0937500
        k(   17) = (   0.3125000   0.3125000   0.3125000), wk =   0.0312500
        k(   18) = (   0.3125000   0.3125000   0.4375000), wk =   0.0937500
        k(   19) = (   0.3125000   0.4375000   0.4375000), wk =   0.0937500
        k(   20) = (   0.4375000   0.4375000   0.4375000), wk =   0.0312500

     Dense  grid:    52515 G-vectors     FFT dimensions: (  48,  48,  48)

     Estimated max dynamical RAM per process >       2.22 MB

     Estimated total dynamical RAM >      88.61 MB

     Initial potential from superposition of free atoms

     starting charge   31.99557, renormalised to   32.00000
     Starting wfcs are   32 randomized atomic wfcs

     total cpu time spent up to now is       27.0 secs

     Self-consistent Calculation

     iteration #  1     ecut=    50.00 Ry     beta= 0.70
     Davidson diagonalization with overlap
     ethr =  1.00E-02,  avg # of iterations =  2.0

     Threshold (ethr) on eigenvalues was too large:
     Diagonalizing with lowered threshold

     Davidson diagonalization with overlap
     ethr =  5.70E-04,  avg # of iterations =  2.0

     total cpu time spent up to now is      183.4 secs

     total energy              =     -62.95803977 Ry
     estimated scf accuracy    <       0.21467005 Ry

     iteration #  2     ecut=    50.00 Ry     beta= 0.70
     Davidson diagonalization with overlap
     ethr =  6.71E-04,  avg # of iterations =  1.0

     total cpu time spent up to now is      236.8 secs

     total energy              =     -62.96491956 Ry
     estimated scf accuracy    <       0.01237014 Ry

     iteration #  3     ecut=    50.00 Ry     beta= 0.70
     Davidson diagonalization with overlap
     ethr =  3.87E-05,  avg # of iterations =  2.1

     total cpu time spent up to now is      318.0 secs

     total energy              =     -62.96728816 Ry
     estimated scf accuracy    <       0.00036239 Ry

     iteration #  4     ecut=    50.00 Ry     beta= 0.70
     Davidson diagonalization with overlap
     ethr =  1.13E-06,  avg # of iterations =  5.5

     total cpu time spent up to now is      444.3 secs

     total energy              =     -62.96758993 Ry
     estimated scf accuracy    <       0.00001551 Ry

     iteration #  5     ecut=    50.00 Ry     beta= 0.70
     Davidson diagonalization with overlap
     ethr =  4.85E-08,  avg # of iterations =  5.3

     total cpu time spent up to now is      565.1 secs

     End of self-consistent calculation

          k = 0.0625 0.0625 0.0625 (  6604 PWs)   bands (ev):

    -5.6965  -2.1289  -2.1289  -2.1287  -1.1905  -1.1905  -1.1904   3.0350
     3.0350   3.0351   3.2664   3.2665   3.2665   5.4938   5.9338   5.9338

          k = 0.0625 0.0625 0.1875 (  6608 PWs)   bands (ev):

    -5.5627  -2.9816  -2.0772  -2.0771  -1.1727  -1.1726  -0.1909   2.6185
     2.6185   3.1455   3.1456   3.1719   3.3868   4.7538   5.5114   5.6714

          k = 0.0625 0.0625 0.3125 (  6593 PWs)   bands (ev):

    -5.2963  -3.7351  -1.9966  -1.9965  -1.1520  -1.1519   0.8464   2.2529
     2.2529   2.8526   2.8527   3.4458   3.6252   3.8721   4.9583   5.0450

          k = 0.0625 0.0625 0.4375 (  6580 PWs)   bands (ev):

    -4.8998  -4.3774  -1.9327  -1.9326  -1.1424  -1.1423   1.8908   2.0553
     2.0554   2.6382   2.6382   2.9096   3.8566   3.9759   4.3993   4.4280

          k = 0.0625 0.1875 0.1875 (  6611 PWs)   bands (ev):

    -5.4302  -2.8962  -2.8961  -2.0962  -1.1235  -0.2541  -0.2540   2.1595
     2.7754   2.7754   3.3038   3.3039   3.4774   4.0080   5.1363   5.8171

          k = 0.0625 0.1875 0.3125 (  6591 PWs)   bands (ev):

    -5.1667  -3.6304  -2.7374  -2.1710  -1.0099  -0.3935   0.6641   1.8941
     2.3739   3.0765   3.1368   3.2009   3.4584   3.6319   4.5649   5.4431

          k = 0.0625 0.1875 0.4375 (  6586 PWs)   bands (ev):

    -4.7752  -4.2605  -2.5323  -2.3256  -0.8252  -0.6002   1.5460   1.8673
     2.0495   2.3850   3.1114   3.2585   3.4943   3.9992   4.1389   4.7869

          k = 0.0625 0.3125 0.3125 (  6591 PWs)   bands (ev):

    -4.9095  -3.4281  -3.4280  -2.4626  -0.7623   0.3399   0.3399   1.7760
     2.4606   2.6177   2.6177   3.6710   3.6711   3.8790   3.9975   5.5150

          k = 0.0625 0.3125 0.4375 (  6580 PWs)   bands (ev):

    -4.5286  -4.0311  -3.1440  -2.8070  -0.4335  -0.0503   1.0414   1.7399
     1.8923   2.1943   2.9801   3.4488   3.8041   3.9428   4.3693   5.0721

          k = 0.0625 0.4375 0.4375 (  6577 PWs)   bands (ev):

    -4.1663  -3.6988  -3.6987  -3.2809   0.0114   0.5098   0.5098   1.1047
     2.1151   2.4941   2.4941   2.9242   4.4222   4.5239   4.5240   5.0137

          k = 0.1875 0.1875 0.1875 (  6595 PWs)   bands (ev):

    -5.2994  -2.8345  -2.8345  -2.8343  -0.3574  -0.3574  -0.3573   2.4262
     2.4262   2.4263   3.2895   3.5919   3.5920   3.5920   5.4966   5.4966

          k = 0.1875 0.1875 0.3125 (  6585 PWs)   bands (ev):

    -5.0395  -3.5370  -2.7368  -2.7366  -0.5263  -0.5263   0.3946   2.2437
     2.2438   2.5263   2.9516   3.6007   3.6007   3.8175   5.0335   5.2340

          k = 0.1875 0.1875 0.4375 (  6578 PWs)   bands (ev):

    -4.6541  -4.1498  -2.6577  -2.6576  -0.6623  -0.6623   1.1011   1.7990
     2.1998   2.2000   3.4926   3.4926   3.6824   4.1461   4.5053   4.5618

          k = 0.1875 0.3125 0.3125 (  6571 PWs)   bands (ev):

    -4.7874  -3.3630  -3.3629  -2.7816  -0.6515  -0.0026  -0.0026   1.8025
     2.2776   2.8423   2.8424   3.8987   3.8988   3.9782   4.6537   5.3591

          k = 0.1875 0.3125 0.4375 (  6585 PWs)   bands (ev):

    -4.4159  -3.9351  -3.1390  -2.9220  -0.6143  -0.3761   0.5396   1.1357
     2.4496   2.6710   3.5120   3.9673   4.0552   4.1167   4.3781   4.9741

          k = 0.1875 0.4375 0.4375 (  6570 PWs)   bands (ev):

    -4.0696  -3.6326  -3.6325  -3.2749  -0.3776   0.0232   0.0232   0.5315
     2.7764   3.1526   3.1526   3.6373   4.4860   4.5678   4.5679   4.9994

          k = 0.3125 0.3125 0.3125 (  6578 PWs)   bands (ev):

    -4.5470  -3.2597  -3.2597  -3.2595  -0.4056  -0.4056  -0.4056   1.1029
     3.0751   3.0751   3.0752   4.1700   4.1701   4.1701   5.0863   5.0863

          k = 0.3125 0.3125 0.4375 (  6581 PWs)   bands (ev):

    -4.1973  -3.7562  -3.1760  -3.1758  -0.6638  -0.6638  -0.0239   0.4838
     3.2266   3.2268   3.9739   4.2848   4.2848   4.4395   4.7595   4.7738

          k = 0.3125 0.4375 0.4375 (  6575 PWs)   bands (ev):

    -3.8896  -3.5276  -3.5274  -3.3100  -0.7064  -0.4708  -0.4708  -0.0706
     3.6585   3.9454   3.9454   4.4396   4.6004   4.6395   4.6397   4.9554

          k = 0.4375 0.4375 0.4375 (  6638 PWs)   bands (ev):

    -3.6598  -3.4424  -3.4424  -3.4422  -0.7678  -0.7677  -0.7677  -0.5333
     4.4893   4.4893   4.4895   4.7389   4.7390   4.7390   4.8668   4.8668

     highest occupied level (ev):     5.9338

!    total energy              =     -62.96760023 Ry
     estimated scf accuracy    <       0.00000066 Ry

     The total energy is the sum of the following terms:
     one-electron contribution =      18.47581692 Ry
     hartree contribution      =       4.44822394 Ry
     xc contribution           =     -19.16267327 Ry
     ewald contribution        =     -66.72896783 Ry

     convergence has been achieved in   5 iterations

     Forces acting on atoms (cartesian axes, Ry/au):

     atom    1 type  1   force =     0.00000000    0.00000000    0.00000000
     atom    2 type  1   force =     0.00000000    0.00000000    0.00000000
     atom    3 type  1   force =     0.00000000    0.00000000    0.00000000
     atom    4 type  1   force =     0.00000000    0.00000000    0.00000000
     atom    5 type  1   force =     0.00000145    0.00000145   -0.00000145
     atom    6 type  1   force =    -0.00000145   -0.00000145   -0.00000145
     atom    7 type  1   force =     0.00000145   -0.00000145    0.00000145
     atom    8 type  1   force =    -0.00000145    0.00000145    0.00000145

     Total force =     0.000005     Total SCF correction =     0.000152
     SCF correction compared to forces is large: reduce conv_thr to get better values


     Computing stress (Cartesian axis) and pressure

          total   stress  (Ry/bohr**3)                   (kbar)     P=        3.41
   0.00002317   0.00000000   0.00000000            3.41        0.00        0.00
   0.00000000   0.00002317   0.00000000            0.00        3.41        0.00
   0.00000000   0.00000000   0.00002317            0.00        0.00        3.41


     Writing output data file ./Si8.save/

     init_run     :     11.63s CPU     26.73s WALL (       1 calls)
     electrons    :    239.18s CPU    538.14s WALL (       1 calls)
     forces       :     11.94s CPU     27.75s WALL (       1 calls)
     stress       :      3.52s CPU      8.21s WALL (       1 calls)

     Called by init_run:
     wfcinit      :     11.60s CPU     26.70s WALL (       1 calls)
     potinit      :      0.01s CPU      0.01s WALL (       1 calls)
     hinit0       :      0.01s CPU      0.01s WALL (       1 calls)

     Called by electrons:
     c_bands      :    238.60s CPU    537.28s WALL (       6 calls)
     sum_band     :      0.52s CPU      0.72s WALL (       6 calls)
     v_of_rho     :      0.02s CPU      0.02s WALL (       6 calls)
     mix_rho      :      0.00s CPU      0.00s WALL (       6 calls)

     Called by c_bands:
     init_us_2    :      0.01s CPU      0.12s WALL (     300 calls)
     cegterg      :    225.55s CPU    507.99s WALL (     120 calls)

     Called by *egterg:
     cdiaghg      :     24.49s CPU     38.67s WALL (     459 calls)
     h_psi        :     81.45s CPU    201.55s WALL (     499 calls)
     g_psi        :      0.00s CPU      0.01s WALL (     359 calls)

     Called by h_psi:
     h_psi:calbec :     50.53s CPU    134.59s WALL (     499 calls)
     vloc_psi     :     23.62s CPU     29.12s WALL (     499 calls)
     add_vuspsi   :      7.29s CPU     37.62s WALL (     499 calls)

     General routines
     calbec       :     65.84s CPU    169.30s WALL (     599 calls)
     fft          :      0.01s CPU      0.01s WALL (      68 calls)
     ffts         :      0.00s CPU      0.00s WALL (       6 calls)
     fftw         :     24.06s CPU     29.74s WALL (   14776 calls)

     Parallel routines
     fft_scatt_xy :      0.08s CPU      0.10s WALL (   14850 calls)
     fft_scatt_yz :     23.66s CPU     29.03s WALL (   14850 calls)

     PWSCF        :   4m26.56s CPU  10m 1.40s WALL


   This run was terminated on:  22:29:53  24Feb2022            

=------------------------------------------------------------------------------=
   JOB DONE.
=------------------------------------------------------------------------------=
