
     Program PWSCF v.6.7MaX starts on 24Feb2022 at 22: 5: 6 

     This program is part of the open-source Quantum ESPRESSO suite
     for quantum simulation of materials; please cite
         "P. Giannozzi et al., J. Phys.:Condens. Matter 21 395502 (2009);
         "P. Giannozzi et al., J. Phys.:Condens. Matter 29 465901 (2017);
          URL http://www.quantum-espresso.org", 
     in publications or presentations arising from this work. More details at
     http://www.quantum-espresso.org/quote

     Parallel version (MPI), running on    40 processors

     MPI processes distributed on     1 nodes
     R & G space division:  proc/nbgrp/npool/nimage =      40
     Waiting for input...
     Reading input from standard input

     Current dimensions of program PWSCF are:
     Max number of different atomic species (ntypx) = 10
     Max number of k-points (npk) =  40000
     Max angular momentum in pseudopotentials (lmaxx) =  3

     Subspace diagonalization in iterative solution of the eigenvalue problem:
     a serial algorithm will be used

     Found symmetry operation: I + (  0.5000  0.5000  0.0000)
     This is a supercell, fractional translations are disabled
     Message from routine setup:
     using ibrav=0 with symmetry is DISCOURAGED, use correct ibrav instead

     Parallelization info
     --------------------
     sticks:   dense  smooth     PW     G-vecs:    dense   smooth      PW
     Min          42      42     12                 1312     1312     194
     Max          43      43     13                 1315     1315     198
     Sum        1693    1693    481                52515    52515    7881



     bravais-lattice index     =            0
     lattice parameter (alat)  =      10.3330  a.u.
     unit-cell volume          =    1103.2623 (a.u.)^3
     number of atoms/cell      =            8
     number of atomic types    =            1
     number of electrons       =        32.00
     number of Kohn-Sham states=           16
     kinetic-energy cutoff     =      50.0000  Ry
     charge density cutoff     =     200.0000  Ry
     scf convergence threshold =      1.0E-06
     mixing beta               =       0.7000
     number of iterations used =            8  plain     mixing
     Exchange-correlation=  SLA  PW   PBE  PBE
                           (   1   4   3   4   0   0   0)

     celldm(1)=  10.332996  celldm(2)=   0.000000  celldm(3)=   0.000000
     celldm(4)=   0.000000  celldm(5)=   0.000000  celldm(6)=   0.000000

     crystal axes: (cart. coord. in units of alat)
               a(1) = (   1.000000   0.000000   0.000000 )  
               a(2) = (   0.000000   1.000000   0.000000 )  
               a(3) = (   0.000000   0.000000   1.000000 )  

     reciprocal axes: (cart. coord. in units 2 pi/alat)
               b(1) = (  1.000000  0.000000  0.000000 )  
               b(2) = (  0.000000  1.000000  0.000000 )  
               b(3) = (  0.000000  0.000000  1.000000 )  


     PseudoPot. # 1 for Si read from file:
     ./Si.pbe-rrkj.UPF
     MD5 check sum: cf7ab5690cd9a85b22c4813f7e365554
     Pseudo is Norm-conserving, Zval =  4.0
     Generated by new atomic code, or converted to UPF format
     Using radial grid of  883 points,  3 beta functions with: 
                l(1) =   0
                l(2) =   0
                l(3) =   1

     atomic species   valence    mass     pseudopotential
        Si             4.00    28.08600     Si( 1.00)

     24 Sym. Ops. (no inversion) found



   Cartesian axes

     site n.     atom                  positions (alat units)
         1           Si  tau(   1) = (   0.5000000   0.5000000   0.0000000  )
         2           Si  tau(   2) = (   0.0000000   0.0000000   0.0000000  )
         3           Si  tau(   3) = (   0.5000000   0.0000000   0.5000000  )
         4           Si  tau(   4) = (   0.0000000   0.5000000   0.5000000  )
         5           Si  tau(   5) = (   0.7500000   0.7500000   0.2500000  )
         6           Si  tau(   6) = (   0.2500000   0.2500000   0.2500000  )
         7           Si  tau(   7) = (   0.7500000   0.2500000   0.7500000  )
         8           Si  tau(   8) = (   0.2500000   0.7500000   0.7500000  )

     number of k points=    10
                       cart. coord. in units 2pi/alat
        k(    1) = (   0.0833333   0.0833333   0.0833333), wk =   0.0740741
        k(    2) = (   0.0833333   0.0833333   0.2500000), wk =   0.2222222
        k(    3) = (   0.0833333   0.0833333   0.4166667), wk =   0.2222222
        k(    4) = (   0.0833333   0.2500000   0.2500000), wk =   0.2222222
        k(    5) = (   0.0833333   0.2500000   0.4166667), wk =   0.4444444
        k(    6) = (   0.0833333   0.4166667   0.4166667), wk =   0.2222222
        k(    7) = (   0.2500000   0.2500000   0.2500000), wk =   0.0740741
        k(    8) = (   0.2500000   0.2500000   0.4166667), wk =   0.2222222
        k(    9) = (   0.2500000   0.4166667   0.4166667), wk =   0.2222222
        k(   10) = (   0.4166667   0.4166667   0.4166667), wk =   0.0740741

     Dense  grid:    52515 G-vectors     FFT dimensions: (  48,  48,  48)

     Estimated max dynamical RAM per process >       1.81 MB

     Estimated total dynamical RAM >      72.59 MB

     Initial potential from superposition of free atoms

     starting charge   31.99557, renormalised to   32.00000
     Starting wfcs are   32 randomized atomic wfcs

     total cpu time spent up to now is       14.0 secs

     Self-consistent Calculation

     iteration #  1     ecut=    50.00 Ry     beta= 0.70
     Davidson diagonalization with overlap
     ethr =  1.00E-02,  avg # of iterations =  2.0

     Threshold (ethr) on eigenvalues was too large:
     Diagonalizing with lowered threshold

     Davidson diagonalization with overlap
     ethr =  5.71E-04,  avg # of iterations =  2.0

     total cpu time spent up to now is       91.5 secs

     total energy              =     -62.95800991 Ry
     estimated scf accuracy    <       0.21434840 Ry

     iteration #  2     ecut=    50.00 Ry     beta= 0.70
     Davidson diagonalization with overlap
     ethr =  6.70E-04,  avg # of iterations =  1.0

     total cpu time spent up to now is      119.9 secs

     total energy              =     -62.96485426 Ry
     estimated scf accuracy    <       0.01240166 Ry

     iteration #  3     ecut=    50.00 Ry     beta= 0.70
     Davidson diagonalization with overlap
     ethr =  3.88E-05,  avg # of iterations =  2.4

     total cpu time spent up to now is      162.0 secs

     total energy              =     -62.96727866 Ry
     estimated scf accuracy    <       0.00037592 Ry

     iteration #  4     ecut=    50.00 Ry     beta= 0.70
     Davidson diagonalization with overlap
     ethr =  1.17E-06,  avg # of iterations =  5.5

     total cpu time spent up to now is      226.5 secs

     total energy              =     -62.96756455 Ry
     estimated scf accuracy    <       0.00002452 Ry

     iteration #  5     ecut=    50.00 Ry     beta= 0.70
     Davidson diagonalization with overlap
     ethr =  7.66E-08,  avg # of iterations =  5.2

     total cpu time spent up to now is      282.8 secs

     End of self-consistent calculation

          k = 0.0833 0.0833 0.0833 (  6604 PWs)   bands (ev):

    -5.6581  -2.2664  -2.2664  -2.2658  -1.0268  -1.0268  -1.0263   2.9139
     2.9139   2.9142   3.2982   3.2985   3.2985   5.1703   5.8754   5.8754

          k = 0.0833 0.0833 0.2500 (  6598 PWs)   bands (ev):

    -5.4210  -3.3534  -2.1766  -2.1762  -1.0192  -1.0189   0.3008   2.3544
     2.3546   3.1137   3.1138   3.1794   3.5107   4.1158   5.2423   5.4244

          k = 0.0833 0.0833 0.4167 (  6584 PWs)   bands (ev):

    -4.9509  -4.2566  -2.0725  -2.0720  -1.0270  -1.0267   1.6468   2.0315
     2.0317   2.7933   2.7934   2.9309   3.7153   3.9270   4.5102   4.5245

          k = 0.0833 0.2500 0.2500 (  6597 PWs)   bands (ev):

    -5.1885  -3.1879  -3.1875  -2.2797  -0.9327   0.0811   0.0812   1.9074
     2.6700   2.6701   3.1197   3.4484   3.4487   3.6666   4.6647   5.6670

          k = 0.0833 0.2500 0.4167 (  6577 PWs)   bands (ev):

    -4.7288  -4.0543  -2.8900  -2.5429  -0.6864  -0.3011   1.1181   1.8797
     2.1085   2.1918   3.2161   3.4484   3.6500   3.9014   4.1441   5.0539

          k = 0.0833 0.4167 0.4167 (  6571 PWs)   bands (ev):

    -4.2936  -3.6663  -3.6659  -3.1333  -0.1878   0.4366   0.4367   1.2336
     2.0933   2.5842   2.5842   3.1813   4.3317   4.3982   4.3987   5.1038

          k = 0.2500 0.2500 0.2500 (  6595 PWs)   bands (ev):

    -4.9624  -3.0819  -3.0819  -3.0812  -0.2660  -0.2660  -0.2659   2.1569
     2.5630   2.5630   2.5635   3.8580   3.8583   3.8583   5.2715   5.2715

          k = 0.2500 0.2500 0.4167 (  6589 PWs)   bands (ev):

    -4.5183  -3.8762  -2.9567  -2.9562  -0.6031  -0.6031   0.4390   1.2335
     2.6229   2.6234   3.6355   3.9209   3.9210   4.2255   4.7274   4.7609

          k = 0.2500 0.4167 0.4167 (  6573 PWs)   bands (ev):

    -4.1130  -3.5565  -3.5561  -3.1944  -0.6305  -0.2337  -0.2337   0.4000
     3.0893   3.5071   3.5072   4.2056   4.4561   4.4932   4.4937   5.0402

          k = 0.4167 0.4167 0.4167 (  6605 PWs)   bands (ev):

    -3.7894  -3.4268  -3.4268  -3.4260  -0.7256  -0.7255  -0.7255  -0.3313
     4.2694   4.2694   4.2700   4.6664   4.6667   4.6667   4.8877   4.8877

     highest occupied level (ev):     5.8754

!    total energy              =     -62.96757604 Ry
     estimated scf accuracy    <       0.00000015 Ry

     The total energy is the sum of the following terms:
     one-electron contribution =      18.47533488 Ry
     hartree contribution      =       4.44909515 Ry
     xc contribution           =     -19.16303825 Ry
     ewald contribution        =     -66.72896783 Ry

     convergence has been achieved in   5 iterations

     Forces acting on atoms (cartesian axes, Ry/au):

     atom    1 type  1   force =     0.00000000    0.00000000    0.00000000
     atom    2 type  1   force =     0.00000000    0.00000000    0.00000000
     atom    3 type  1   force =     0.00000000    0.00000000    0.00000000
     atom    4 type  1   force =     0.00000000    0.00000000    0.00000000
     atom    5 type  1   force =     0.00001824    0.00001824   -0.00001824
     atom    6 type  1   force =    -0.00001824   -0.00001824   -0.00001824
     atom    7 type  1   force =     0.00001824   -0.00001824    0.00001824
     atom    8 type  1   force =    -0.00001824    0.00001824    0.00001824

     Total force =     0.000063     Total SCF correction =     0.000422
     SCF correction compared to forces is large: reduce conv_thr to get better values


     Computing stress (Cartesian axis) and pressure

          total   stress  (Ry/bohr**3)                   (kbar)     P=        3.53
   0.00002398   0.00000000   0.00000000            3.53        0.00        0.00
   0.00000000   0.00002398   0.00000000            0.00        3.53        0.00
   0.00000000   0.00000000   0.00002398            0.00        0.00        3.53


     Writing output data file ./Si8.save/

     init_run     :      5.74s CPU     13.76s WALL (       1 calls)
     electrons    :    119.88s CPU    268.85s WALL (       1 calls)
     forces       :      6.06s CPU     14.09s WALL (       1 calls)
     stress       :      1.40s CPU      3.54s WALL (       1 calls)

     Called by init_run:
     wfcinit      :      5.70s CPU     13.72s WALL (       1 calls)
     potinit      :      0.01s CPU      0.01s WALL (       1 calls)
     hinit0       :      0.01s CPU      0.01s WALL (       1 calls)

     Called by electrons:
     c_bands      :    119.43s CPU    268.15s WALL (       6 calls)
     sum_band     :      0.39s CPU      0.59s WALL (       6 calls)
     v_of_rho     :      0.01s CPU      0.02s WALL (       6 calls)
     mix_rho      :      0.00s CPU      0.00s WALL (       6 calls)

     Called by c_bands:
     init_us_2    :      0.01s CPU      0.06s WALL (     150 calls)
     cegterg      :    113.17s CPU    254.07s WALL (      60 calls)

     Called by *egterg:
     cdiaghg      :     12.56s CPU     18.97s WALL (     231 calls)
     h_psi        :     41.06s CPU    101.37s WALL (     251 calls)
     g_psi        :      0.00s CPU      0.01s WALL (     181 calls)

     Called by h_psi:
     h_psi:calbec :     26.02s CPU     68.18s WALL (     251 calls)
     vloc_psi     :     11.49s CPU     14.47s WALL (     251 calls)
     add_vuspsi   :      3.54s CPU     18.71s WALL (     251 calls)

     General routines
     calbec       :     33.38s CPU     84.81s WALL (     301 calls)
     fft          :      0.01s CPU      0.01s WALL (      68 calls)
     ffts         :      0.00s CPU      0.00s WALL (       6 calls)
     fftw         :     11.84s CPU     15.01s WALL (    7264 calls)

     Parallel routines
     fft_scatt_xy :      0.05s CPU      0.06s WALL (    7338 calls)
     fft_scatt_yz :     11.65s CPU     14.58s WALL (    7338 calls)

     PWSCF        :   2m13.34s CPU   5m 0.68s WALL


   This run was terminated on:  22:10: 6  24Feb2022            

=------------------------------------------------------------------------------=
   JOB DONE.
=------------------------------------------------------------------------------=
