
     Program PWSCF v.6.7MaX starts on 24Feb2022 at 22:10: 7 

     This program is part of the open-source Quantum ESPRESSO suite
     for quantum simulation of materials; please cite
         "P. Giannozzi et al., J. Phys.:Condens. Matter 21 395502 (2009);
         "P. Giannozzi et al., J. Phys.:Condens. Matter 29 465901 (2017);
          URL http://www.quantum-espresso.org", 
     in publications or presentations arising from this work. More details at
     http://www.quantum-espresso.org/quote

     Parallel version (MPI), running on    40 processors

     MPI processes distributed on     1 nodes
     R & G space division:  proc/nbgrp/npool/nimage =      40
     Waiting for input...
     Reading input from standard input

     Current dimensions of program PWSCF are:
     Max number of different atomic species (ntypx) = 10
     Max number of k-points (npk) =  40000
     Max angular momentum in pseudopotentials (lmaxx) =  3

     Subspace diagonalization in iterative solution of the eigenvalue problem:
     a serial algorithm will be used

     Found symmetry operation: I + (  0.5000  0.5000  0.0000)
     This is a supercell, fractional translations are disabled
     Message from routine setup:
     using ibrav=0 with symmetry is DISCOURAGED, use correct ibrav instead

     Parallelization info
     --------------------
     sticks:   dense  smooth     PW     G-vecs:    dense   smooth      PW
     Min          42      42     12                 1312     1312     204
     Max          43      43     13                 1315     1315     209
     Sum        1693    1693    489                52515    52515    8217



     bravais-lattice index     =            0
     lattice parameter (alat)  =      10.3330  a.u.
     unit-cell volume          =    1103.2623 (a.u.)^3
     number of atoms/cell      =            8
     number of atomic types    =            1
     number of electrons       =        32.00
     number of Kohn-Sham states=           16
     kinetic-energy cutoff     =      50.0000  Ry
     charge density cutoff     =     200.0000  Ry
     scf convergence threshold =      1.0E-06
     mixing beta               =       0.7000
     number of iterations used =            8  plain     mixing
     Exchange-correlation=  SLA  PW   PBE  PBE
                           (   1   4   3   4   0   0   0)

     celldm(1)=  10.332996  celldm(2)=   0.000000  celldm(3)=   0.000000
     celldm(4)=   0.000000  celldm(5)=   0.000000  celldm(6)=   0.000000

     crystal axes: (cart. coord. in units of alat)
               a(1) = (   1.000000   0.000000   0.000000 )  
               a(2) = (   0.000000   1.000000   0.000000 )  
               a(3) = (   0.000000   0.000000   1.000000 )  

     reciprocal axes: (cart. coord. in units 2 pi/alat)
               b(1) = (  1.000000  0.000000  0.000000 )  
               b(2) = (  0.000000  1.000000  0.000000 )  
               b(3) = (  0.000000  0.000000  1.000000 )  


     PseudoPot. # 1 for Si read from file:
     ./Si.pbe-rrkj.UPF
     MD5 check sum: cf7ab5690cd9a85b22c4813f7e365554
     Pseudo is Norm-conserving, Zval =  4.0
     Generated by new atomic code, or converted to UPF format
     Using radial grid of  883 points,  3 beta functions with: 
                l(1) =   0
                l(2) =   0
                l(3) =   1

     atomic species   valence    mass     pseudopotential
        Si             4.00    28.08600     Si( 1.00)

     24 Sym. Ops. (no inversion) found



   Cartesian axes

     site n.     atom                  positions (alat units)
         1           Si  tau(   1) = (   0.5000000   0.5000000   0.0000000  )
         2           Si  tau(   2) = (   0.0000000   0.0000000   0.0000000  )
         3           Si  tau(   3) = (   0.5000000   0.0000000   0.5000000  )
         4           Si  tau(   4) = (   0.0000000   0.5000000   0.5000000  )
         5           Si  tau(   5) = (   0.7500000   0.7500000   0.2500000  )
         6           Si  tau(   6) = (   0.2500000   0.2500000   0.2500000  )
         7           Si  tau(   7) = (   0.7500000   0.2500000   0.7500000  )
         8           Si  tau(   8) = (   0.2500000   0.7500000   0.7500000  )

     number of k points=    20
                       cart. coord. in units 2pi/alat
        k(    1) = (   0.0714286   0.0714286   0.0714286), wk =   0.0466472
        k(    2) = (   0.0714286   0.0714286   0.2142857), wk =   0.1399417
        k(    3) = (   0.0714286   0.0714286   0.3571429), wk =   0.1399417
        k(    4) = (   0.0714286   0.0714286  -0.5000000), wk =   0.0699708
        k(    5) = (   0.0714286   0.2142857   0.2142857), wk =   0.1399417
        k(    6) = (   0.0714286   0.2142857   0.3571429), wk =   0.2798834
        k(    7) = (   0.0714286   0.2142857  -0.5000000), wk =   0.1399417
        k(    8) = (   0.0714286   0.3571429   0.3571429), wk =   0.1399417
        k(    9) = (   0.0714286   0.3571429  -0.5000000), wk =   0.1399417
        k(   10) = (   0.0714286  -0.5000000  -0.5000000), wk =   0.0349854
        k(   11) = (   0.2142857   0.2142857   0.2142857), wk =   0.0466472
        k(   12) = (   0.2142857   0.2142857   0.3571429), wk =   0.1399417
        k(   13) = (   0.2142857   0.2142857  -0.5000000), wk =   0.0699708
        k(   14) = (   0.2142857   0.3571429   0.3571429), wk =   0.1399417
        k(   15) = (   0.2142857   0.3571429  -0.5000000), wk =   0.1399417
        k(   16) = (   0.2142857  -0.5000000  -0.5000000), wk =   0.0349854
        k(   17) = (   0.3571429   0.3571429   0.3571429), wk =   0.0466472
        k(   18) = (   0.3571429   0.3571429  -0.5000000), wk =   0.0699708
        k(   19) = (   0.3571429  -0.5000000  -0.5000000), wk =   0.0349854
        k(   20) = (  -0.5000000  -0.5000000  -0.5000000), wk =   0.0058309

     Dense  grid:    52515 G-vectors     FFT dimensions: (  48,  48,  48)

     Estimated max dynamical RAM per process >       2.22 MB

     Estimated total dynamical RAM >      88.61 MB

     Initial potential from superposition of free atoms

     starting charge   31.99557, renormalised to   32.00000
     Starting wfcs are   32 randomized atomic wfcs

     total cpu time spent up to now is       27.5 secs

     Self-consistent Calculation

     iteration #  1     ecut=    50.00 Ry     beta= 0.70
     Davidson diagonalization with overlap
     ethr =  1.00E-02,  avg # of iterations =  2.0

     Threshold (ethr) on eigenvalues was too large:
     Diagonalizing with lowered threshold

     Davidson diagonalization with overlap
     ethr =  5.70E-04,  avg # of iterations =  2.0

     total cpu time spent up to now is      182.3 secs

     total energy              =     -62.95806342 Ry
     estimated scf accuracy    <       0.21451920 Ry

     iteration #  2     ecut=    50.00 Ry     beta= 0.70
     Davidson diagonalization with overlap
     ethr =  6.70E-04,  avg # of iterations =  1.0

     total cpu time spent up to now is      237.2 secs

     total energy              =     -62.96491617 Ry
     estimated scf accuracy    <       0.01236761 Ry

     iteration #  3     ecut=    50.00 Ry     beta= 0.70
     Davidson diagonalization with overlap
     ethr =  3.86E-05,  avg # of iterations =  2.1

     total cpu time spent up to now is      319.0 secs

     total energy              =     -62.96728478 Ry
     estimated scf accuracy    <       0.00035913 Ry

     iteration #  4     ecut=    50.00 Ry     beta= 0.70
     Davidson diagonalization with overlap
     ethr =  1.12E-06,  avg # of iterations =  5.5

     total cpu time spent up to now is      438.8 secs

     total energy              =     -62.96758554 Ry
     estimated scf accuracy    <       0.00001545 Ry

     iteration #  5     ecut=    50.00 Ry     beta= 0.70
     Davidson diagonalization with overlap
     ethr =  4.83E-08,  avg # of iterations =  4.7

     total cpu time spent up to now is      549.4 secs

     End of self-consistent calculation

          k = 0.0714 0.0714 0.0714 (  6613 PWs)   bands (ev):

    -5.6811  -2.1883  -2.1883  -2.1882  -1.1197  -1.1197  -1.1196   2.9852
     2.9852   2.9853   3.2793   3.2794   3.2794   5.3606   5.9106   5.9106

          k = 0.0714 0.0714 0.2143 (  6615 PWs)   bands (ev):

    -5.5065  -3.1448  -2.1211  -2.1211  -1.1036  -1.1036   0.0229   2.4999
     2.5000   3.1306   3.1306   3.1703   3.4361   4.4832   5.3973   5.5726

          k = 0.0714 0.0714 0.3571 (  6591 PWs)   bands (ev):

    -5.1595  -3.9693  -2.0266  -2.0265  -1.0924  -1.0923   1.2009   2.1363
     2.1364   2.8123   2.8123   3.4672   3.5419   3.7453   4.7667   4.8208

          k = 0.0714 0.0714-0.5000 (  6570 PWs)   bands (ev):

    -4.6447  -4.6446  -1.9794  -1.9793  -1.0921  -1.0920   2.0116   2.0116
     2.3644   2.3644   2.6645   2.6645   4.0998   4.0999   4.1965   4.1967

          k = 0.0714 0.2143 0.2143 (  6592 PWs)   bands (ev):

    -5.3343  -3.0286  -3.0285  -2.1667  -1.0405  -0.0920  -0.0920   2.0249
     2.7169   2.7169   3.3526   3.3527   3.5529   3.6254   4.9364   5.7580

          k = 0.0714 0.2143 0.3571 (  6587 PWs)   bands (ev):

    -4.9926  -3.8269  -2.8155  -2.3099  -0.8804  -0.3246   0.8940   1.8398
     2.2810   2.7226   3.1191   3.2363   3.5339   3.8182   4.2770   5.2857

          k = 0.0714 0.2143-0.5000 (  6596 PWs)   bands (ev):

    -4.4869  -4.4868  -2.5509  -2.5508  -0.6197  -0.6196   1.8233   1.8233
     1.9539   1.9539   3.3255   3.3255   3.6526   3.6526   4.5131   4.5131

          k = 0.0714 0.3571 0.3571 (  6573 PWs)   bands (ev):

    -4.6624  -3.5527  -3.5526  -2.7306  -0.5358   0.4148   0.4148   1.8512
     1.9143   2.5871   2.5871   3.6332   3.9696   3.9697   4.0640   5.3516

          k = 0.0714 0.3571-0.5000 (  6568 PWs)   bands (ev):

    -4.1774  -4.1773  -3.1715  -3.1714  -0.0907  -0.0907   1.1467   1.1467
     2.1278   2.1278   3.0473   3.0474   4.1372   4.1373   4.7955   4.7955

          k = 0.0714-0.5000-0.5000 (  6576 PWs)   bands (ev):

    -3.7301  -3.7301  -3.7301  -3.7299   0.4952   0.4953   0.4953   0.4953
     2.5104   2.5104   2.5104   2.5105   4.7212   4.7213   4.7214   4.7214

          k = 0.2143 0.2143 0.2143 (  6595 PWs)   bands (ev):

    -5.1652  -2.9487  -2.9487  -2.9486  -0.2814  -0.2814  -0.2814   2.4324
     2.4324   2.4325   2.7979   3.6992   3.6993   3.6993   5.3969   5.3969

          k = 0.2143 0.2143 0.3571 (  6578 PWs)   bands (ev):

    -4.8303  -3.7007  -2.8343  -2.8342  -0.5367  -0.5367   0.4567   1.9552
     2.3537   2.3537   3.1884   3.7261   3.7261   3.9850   4.8893   5.0373

          k = 0.2143 0.2143-0.5000 (  6592 PWs)   bands (ev):

    -4.3374  -4.3373  -2.7762  -2.7761  -0.6574  -0.6574   1.1815   1.1816
     2.3628   2.3629   3.6630   3.6630   4.1375   4.1375   4.3934   4.3936

          k = 0.2143 0.3571 0.3571 (  6578 PWs)   bands (ev):

    -4.5112  -3.4692  -3.4691  -2.9456  -0.6591  -0.0800  -0.0800   1.1684
     2.5663   3.1174   3.1174   4.1379   4.1380   4.1806   4.4457   5.2232

          k = 0.2143 0.3571-0.5000 (  6576 PWs)   bands (ev):

    -4.0485  -4.0483  -3.1851  -3.1850  -0.4961  -0.4961   0.4839   0.4840
     2.8627   2.8628   3.8391   3.8391   4.2639   4.2639   4.7578   4.7579

          k = 0.2143-0.5000-0.5000 (  6568 PWs)   bands (ev):

    -3.6457  -3.6457  -3.6457  -3.6455  -0.0981  -0.0981  -0.0981  -0.0980
     3.3578   3.3579   3.3579   3.3580   4.7615   4.7615   4.7616   4.7616

          k = 0.3571 0.3571 0.3571 (  6575 PWs)   bands (ev):

    -4.2190  -3.3493  -3.3493  -3.3491  -0.5538  -0.5537  -0.5537   0.4237
     3.5718   3.5718   3.5719   4.3987   4.3988   4.3988   4.9834   4.9834

          k = 0.3571 0.3571-0.5000 (  6582 PWs)   bands (ev):

    -3.8121  -3.8120  -3.2883  -3.2882  -0.7437  -0.7437  -0.1717  -0.1716
     3.7327   3.7328   4.5175   4.5175   4.5482   4.5483   4.6851   4.6852

          k = 0.3571-0.5000-0.5000 (  6604 PWs)   bands (ev):

    -3.5246  -3.5246  -3.5246  -3.5244  -0.6209  -0.6209  -0.6209  -0.6208
     4.3276   4.3277   4.3277   4.3278   4.8144   4.8145   4.8146   4.8146

          k =-0.5000-0.5000-0.5000 (  6704 PWs)   bands (ev):

    -3.4630  -3.4630  -3.4630  -3.4628  -0.8248  -0.8247  -0.8247  -0.8247
     4.8391   4.8391   4.8391   4.8391   4.8391   4.8393   4.8393   4.8393

     highest occupied level (ev):     5.9106

!    total energy              =     -62.96759623 Ry
     estimated scf accuracy    <       0.00000075 Ry

     The total energy is the sum of the following terms:
     one-electron contribution =      18.47585097 Ry
     hartree contribution      =       4.44817929 Ry
     xc contribution           =     -19.16265866 Ry
     ewald contribution        =     -66.72896783 Ry

     convergence has been achieved in   5 iterations

     Forces acting on atoms (cartesian axes, Ry/au):

     atom    1 type  1   force =     0.00000000    0.00000000    0.00000000
     atom    2 type  1   force =     0.00000000    0.00000000    0.00000000
     atom    3 type  1   force =     0.00000000    0.00000000    0.00000000
     atom    4 type  1   force =     0.00000000    0.00000000    0.00000000
     atom    5 type  1   force =     0.00000035    0.00000035   -0.00000035
     atom    6 type  1   force =    -0.00000035   -0.00000035   -0.00000035
     atom    7 type  1   force =     0.00000035   -0.00000035    0.00000035
     atom    8 type  1   force =    -0.00000035    0.00000035    0.00000035

     Total force =     0.000001     Total SCF correction =     0.000120
     SCF correction compared to forces is large: reduce conv_thr to get better values


     Computing stress (Cartesian axis) and pressure

          total   stress  (Ry/bohr**3)                   (kbar)     P=        3.39
   0.00002307   0.00000000   0.00000000            3.39        0.00        0.00
   0.00000000   0.00002307   0.00000000            0.00        3.39        0.00
   0.00000000   0.00000000   0.00002307            0.00        0.00        3.39


     Writing output data file ./Si8.save/

     init_run     :     11.45s CPU     27.32s WALL (       1 calls)
     electrons    :    226.21s CPU    521.89s WALL (       1 calls)
     forces       :     11.28s CPU     27.27s WALL (       1 calls)
     stress       :      2.74s CPU      6.77s WALL (       1 calls)

     Called by init_run:
     wfcinit      :     11.42s CPU     27.29s WALL (       1 calls)
     potinit      :      0.01s CPU      0.01s WALL (       1 calls)
     hinit0       :      0.01s CPU      0.01s WALL (       1 calls)

     Called by electrons:
     c_bands      :    225.64s CPU    521.07s WALL (       6 calls)
     sum_band     :      0.51s CPU      0.72s WALL (       6 calls)
     v_of_rho     :      0.02s CPU      0.02s WALL (       6 calls)
     mix_rho      :      0.00s CPU      0.00s WALL (       6 calls)

     Called by c_bands:
     init_us_2    :      0.01s CPU      0.20s WALL (     300 calls)
     cegterg      :    212.69s CPU    492.30s WALL (     120 calls)

     Called by *egterg:
     cdiaghg      :     23.87s CPU     39.00s WALL (     448 calls)
     h_psi        :     76.81s CPU    194.79s WALL (     488 calls)
     g_psi        :      0.00s CPU      0.00s WALL (     348 calls)

     Called by h_psi:
     h_psi:calbec :     47.28s CPU    126.40s WALL (     488 calls)
     vloc_psi     :     22.04s CPU     29.28s WALL (     488 calls)
     add_vuspsi   :      7.47s CPU     38.97s WALL (     488 calls)

     General routines
     calbec       :     61.12s CPU    159.34s WALL (     588 calls)
     fft          :      0.03s CPU      0.03s WALL (      68 calls)
     ffts         :      0.00s CPU      0.00s WALL (       6 calls)
     fftw         :     22.48s CPU     29.91s WALL (   14670 calls)

     Parallel routines
     fft_scatt_xy :      0.10s CPU      0.10s WALL (   14744 calls)
     fft_scatt_yz :     22.03s CPU     29.15s WALL (   14744 calls)

     PWSCF        :   4m11.97s CPU   9m43.78s WALL


   This run was terminated on:  22:19:51  24Feb2022            

=------------------------------------------------------------------------------=
   JOB DONE.
=------------------------------------------------------------------------------=
