
     Program PWSCF v.6.7MaX starts on 24Feb2022 at 21:56:22 

     This program is part of the open-source Quantum ESPRESSO suite
     for quantum simulation of materials; please cite
         "P. Giannozzi et al., J. Phys.:Condens. Matter 21 395502 (2009);
         "P. Giannozzi et al., J. Phys.:Condens. Matter 29 465901 (2017);
          URL http://www.quantum-espresso.org", 
     in publications or presentations arising from this work. More details at
     http://www.quantum-espresso.org/quote

     Parallel version (MPI), running on    40 processors

     MPI processes distributed on     1 nodes
     R & G space division:  proc/nbgrp/npool/nimage =      40
     Waiting for input...
     Reading input from standard input

     Current dimensions of program PWSCF are:
     Max number of different atomic species (ntypx) = 10
     Max number of k-points (npk) =  40000
     Max angular momentum in pseudopotentials (lmaxx) =  3

     Subspace diagonalization in iterative solution of the eigenvalue problem:
     a serial algorithm will be used

     Found symmetry operation: I + (  0.5000  0.5000  0.0000)
     This is a supercell, fractional translations are disabled
     Message from routine setup:
     using ibrav=0 with symmetry is DISCOURAGED, use correct ibrav instead

     Parallelization info
     --------------------
     sticks:   dense  smooth     PW     G-vecs:    dense   smooth      PW
     Min          42      42     12                 1312     1312     204
     Max          43      43     13                 1315     1315     209
     Sum        1693    1693    489                52515    52515    8217



     bravais-lattice index     =            0
     lattice parameter (alat)  =      10.3330  a.u.
     unit-cell volume          =    1103.2623 (a.u.)^3
     number of atoms/cell      =            8
     number of atomic types    =            1
     number of electrons       =        32.00
     number of Kohn-Sham states=           16
     kinetic-energy cutoff     =      50.0000  Ry
     charge density cutoff     =     200.0000  Ry
     scf convergence threshold =      1.0E-06
     mixing beta               =       0.7000
     number of iterations used =            8  plain     mixing
     Exchange-correlation=  SLA  PW   PBE  PBE
                           (   1   4   3   4   0   0   0)

     celldm(1)=  10.332996  celldm(2)=   0.000000  celldm(3)=   0.000000
     celldm(4)=   0.000000  celldm(5)=   0.000000  celldm(6)=   0.000000

     crystal axes: (cart. coord. in units of alat)
               a(1) = (   1.000000   0.000000   0.000000 )  
               a(2) = (   0.000000   1.000000   0.000000 )  
               a(3) = (   0.000000   0.000000   1.000000 )  

     reciprocal axes: (cart. coord. in units 2 pi/alat)
               b(1) = (  1.000000  0.000000  0.000000 )  
               b(2) = (  0.000000  1.000000  0.000000 )  
               b(3) = (  0.000000  0.000000  1.000000 )  


     PseudoPot. # 1 for Si read from file:
     ./Si.pbe-rrkj.UPF
     MD5 check sum: cf7ab5690cd9a85b22c4813f7e365554
     Pseudo is Norm-conserving, Zval =  4.0
     Generated by new atomic code, or converted to UPF format
     Using radial grid of  883 points,  3 beta functions with: 
                l(1) =   0
                l(2) =   0
                l(3) =   1

     atomic species   valence    mass     pseudopotential
        Si             4.00    28.08600     Si( 1.00)

     24 Sym. Ops. (no inversion) found



   Cartesian axes

     site n.     atom                  positions (alat units)
         1           Si  tau(   1) = (   0.5000000   0.5000000   0.0000000  )
         2           Si  tau(   2) = (   0.0000000   0.0000000   0.0000000  )
         3           Si  tau(   3) = (   0.5000000   0.0000000   0.5000000  )
         4           Si  tau(   4) = (   0.0000000   0.5000000   0.5000000  )
         5           Si  tau(   5) = (   0.7500000   0.7500000   0.2500000  )
         6           Si  tau(   6) = (   0.2500000   0.2500000   0.2500000  )
         7           Si  tau(   7) = (   0.7500000   0.2500000   0.7500000  )
         8           Si  tau(   8) = (   0.2500000   0.7500000   0.7500000  )

     number of k points=     4
                       cart. coord. in units 2pi/alat
        k(    1) = (   0.1666667   0.1666667   0.1666667), wk =   0.5925926
        k(    2) = (   0.1666667   0.1666667  -0.5000000), wk =   0.8888889
        k(    3) = (   0.1666667  -0.5000000  -0.5000000), wk =   0.4444444
        k(    4) = (  -0.5000000  -0.5000000  -0.5000000), wk =   0.0740741

     Dense  grid:    52515 G-vectors     FFT dimensions: (  48,  48,  48)

     Estimated max dynamical RAM per process >       1.57 MB

     Estimated total dynamical RAM >      62.98 MB

     Initial potential from superposition of free atoms

     starting charge   31.99557, renormalised to   32.00000
     Starting wfcs are   32 randomized atomic wfcs

     total cpu time spent up to now is        5.3 secs

     Self-consistent Calculation

     iteration #  1     ecut=    50.00 Ry     beta= 0.70
     Davidson diagonalization with overlap
     ethr =  1.00E-02,  avg # of iterations =  2.0

     Threshold (ethr) on eigenvalues was too large:
     Diagonalizing with lowered threshold

     Davidson diagonalization with overlap
     ethr =  5.75E-04,  avg # of iterations =  2.0

     total cpu time spent up to now is       34.8 secs

     total energy              =     -62.95332670 Ry
     estimated scf accuracy    <       0.21724212 Ry

     iteration #  2     ecut=    50.00 Ry     beta= 0.70
     Davidson diagonalization with overlap
     ethr =  6.79E-04,  avg # of iterations =  1.0

     total cpu time spent up to now is       45.2 secs

     total energy              =     -62.96011812 Ry
     estimated scf accuracy    <       0.01244499 Ry

     iteration #  3     ecut=    50.00 Ry     beta= 0.70
     Davidson diagonalization with overlap
     ethr =  3.89E-05,  avg # of iterations =  2.0

     total cpu time spent up to now is       61.9 secs

     total energy              =     -62.96225290 Ry
     estimated scf accuracy    <       0.00033102 Ry

     iteration #  4     ecut=    50.00 Ry     beta= 0.70
     Davidson diagonalization with overlap
     ethr =  1.03E-06,  avg # of iterations =  5.2

     total cpu time spent up to now is       84.9 secs

     total energy              =     -62.96250399 Ry
     estimated scf accuracy    <       0.00001003 Ry

     iteration #  5     ecut=    50.00 Ry     beta= 0.70
     Davidson diagonalization with overlap
     ethr =  3.13E-08,  avg # of iterations =  5.0

     total cpu time spent up to now is      110.9 secs

     End of self-consistent calculation

          k = 0.1667 0.1667 0.1667 (  6580 PWs)   bands (ev):

    -5.3879  -2.7323  -2.7317  -2.7317  -0.4477  -0.4473  -0.4473   2.4756
     2.4759   2.4759   3.5209   3.5209   3.5212   3.6801   5.5810   5.5810

          k = 0.1667 0.1667-0.5000 (  6606 PWs)   bands (ev):

    -4.4672  -4.4667  -2.5330  -2.5325  -0.7147  -0.7146   1.6532   1.6535
     2.1040   2.1043   3.3268   3.3268   4.0712   4.0714   4.3137   4.3143

          k = 0.1667-0.5000-0.5000 (  6576 PWs)   bands (ev):

    -3.6776  -3.6767  -3.6767  -3.6766   0.1159   0.1162   0.1162   0.1165
     3.0403   3.0407   3.0407   3.0411   4.7491   4.7491   4.7495   4.7498

          k =-0.5000-0.5000-0.5000 (  6704 PWs)   bands (ev):

    -3.4592  -3.4582  -3.4582  -3.4582  -0.8208  -0.8208  -0.8208  -0.8205
     4.8433   4.8433   4.8433   4.8439   4.8439   4.8439   4.8442   4.8442

     highest occupied level (ev):     5.5810

!    total energy              =     -62.96251579 Ry
     estimated scf accuracy    <       0.00000043 Ry

     The total energy is the sum of the following terms:
     one-electron contribution =      18.47412799 Ry
     hartree contribution      =       4.46115007 Ry
     xc contribution           =     -19.16882603 Ry
     ewald contribution        =     -66.72896783 Ry

     convergence has been achieved in   5 iterations

     Forces acting on atoms (cartesian axes, Ry/au):

     atom    1 type  1   force =     0.00000000    0.00000000    0.00000000
     atom    2 type  1   force =     0.00000000    0.00000000    0.00000000
     atom    3 type  1   force =     0.00000000    0.00000000    0.00000000
     atom    4 type  1   force =     0.00000000    0.00000000    0.00000000
     atom    5 type  1   force =    -0.00000393   -0.00000393    0.00000393
     atom    6 type  1   force =     0.00000393    0.00000393    0.00000393
     atom    7 type  1   force =    -0.00000393    0.00000393   -0.00000393
     atom    8 type  1   force =     0.00000393   -0.00000393   -0.00000393

     Total force =     0.000014     Total SCF correction =     0.000543
     SCF correction compared to forces is large: reduce conv_thr to get better values


     Computing stress (Cartesian axis) and pressure

          total   stress  (Ry/bohr**3)                   (kbar)     P=        3.60
   0.00002448   0.00000000   0.00000000            3.60        0.00        0.00
   0.00000000   0.00002448   0.00000000            0.00        3.60        0.00
   0.00000000   0.00000000   0.00002448            0.00        0.00        3.60


     Writing output data file ./Si8.save/

     init_run     :      2.11s CPU      5.06s WALL (       1 calls)
     electrons    :     45.59s CPU    105.63s WALL (       1 calls)
     forces       :      2.10s CPU      5.24s WALL (       1 calls)
     stress       :      0.36s CPU      1.45s WALL (       1 calls)

     Called by init_run:
     wfcinit      :      2.09s CPU      5.02s WALL (       1 calls)
     potinit      :      0.00s CPU      0.01s WALL (       1 calls)
     hinit0       :      0.00s CPU      0.01s WALL (       1 calls)

     Called by electrons:
     c_bands      :     45.08s CPU    104.89s WALL (       6 calls)
     sum_band     :      0.35s CPU      0.57s WALL (       6 calls)
     v_of_rho     :      0.02s CPU      0.02s WALL (       6 calls)
     mix_rho      :      0.01s CPU      0.01s WALL (       6 calls)

     Called by c_bands:
     init_us_2    :      0.00s CPU      0.08s WALL (      60 calls)
     cegterg      :     43.05s CPU     99.65s WALL (      24 calls)

     Called by *egterg:
     cdiaghg      :      4.96s CPU      8.31s WALL (      89 calls)
     h_psi        :     15.17s CPU     39.38s WALL (      97 calls)
     g_psi        :      0.00s CPU      0.00s WALL (      69 calls)

     Called by h_psi:
     h_psi:calbec :      9.49s CPU     26.17s WALL (      97 calls)
     vloc_psi     :      4.26s CPU      4.96s WALL (      97 calls)
     add_vuspsi   :      1.41s CPU      8.24s WALL (      97 calls)

     General routines
     calbec       :     11.89s CPU     32.17s WALL (     117 calls)
     fft          :      0.01s CPU      0.01s WALL (      68 calls)
     ffts         :      0.00s CPU      0.00s WALL (       6 calls)
     fftw         :      4.59s CPU      5.51s WALL (    2950 calls)

     Parallel routines
     fft_scatt_xy :      0.02s CPU      0.02s WALL (    3024 calls)
     fft_scatt_yz :      4.52s CPU      5.41s WALL (    3024 calls)

     PWSCF        :     50.34s CPU   1m57.70s WALL


   This run was terminated on:  21:58:20  24Feb2022            

=------------------------------------------------------------------------------=
   JOB DONE.
=------------------------------------------------------------------------------=
