
     Program PWSCF v.6.7MaX starts on 24Feb2022 at 22: 2:22 

     This program is part of the open-source Quantum ESPRESSO suite
     for quantum simulation of materials; please cite
         "P. Giannozzi et al., J. Phys.:Condens. Matter 21 395502 (2009);
         "P. Giannozzi et al., J. Phys.:Condens. Matter 29 465901 (2017);
          URL http://www.quantum-espresso.org", 
     in publications or presentations arising from this work. More details at
     http://www.quantum-espresso.org/quote

     Parallel version (MPI), running on    40 processors

     MPI processes distributed on     1 nodes
     R & G space division:  proc/nbgrp/npool/nimage =      40
     Waiting for input...
     Reading input from standard input

     Current dimensions of program PWSCF are:
     Max number of different atomic species (ntypx) = 10
     Max number of k-points (npk) =  40000
     Max angular momentum in pseudopotentials (lmaxx) =  3

     Subspace diagonalization in iterative solution of the eigenvalue problem:
     a serial algorithm will be used

     Found symmetry operation: I + (  0.5000  0.5000  0.0000)
     This is a supercell, fractional translations are disabled
     Message from routine setup:
     using ibrav=0 with symmetry is DISCOURAGED, use correct ibrav instead

     Parallelization info
     --------------------
     sticks:   dense  smooth     PW     G-vecs:    dense   smooth      PW
     Min          33      33     10                  935      935     150
     Max          34      34     11                  940      940     153
     Sum        1353    1353    401                37561    37561    6031



     bravais-lattice index     =            0
     lattice parameter (alat)  =      10.3330  a.u.
     unit-cell volume          =    1103.2623 (a.u.)^3
     number of atoms/cell      =            8
     number of atomic types    =            1
     number of electrons       =        32.00
     number of Kohn-Sham states=           16
     kinetic-energy cutoff     =      40.0000  Ry
     charge density cutoff     =     160.0000  Ry
     scf convergence threshold =      1.0E-06
     mixing beta               =       0.7000
     number of iterations used =            8  plain     mixing
     Exchange-correlation=  SLA  PW   PBE  PBE
                           (   1   4   3   4   0   0   0)

     celldm(1)=  10.332996  celldm(2)=   0.000000  celldm(3)=   0.000000
     celldm(4)=   0.000000  celldm(5)=   0.000000  celldm(6)=   0.000000

     crystal axes: (cart. coord. in units of alat)
               a(1) = (   1.000000   0.000000   0.000000 )  
               a(2) = (   0.000000   1.000000   0.000000 )  
               a(3) = (   0.000000   0.000000   1.000000 )  

     reciprocal axes: (cart. coord. in units 2 pi/alat)
               b(1) = (  1.000000  0.000000  0.000000 )  
               b(2) = (  0.000000  1.000000  0.000000 )  
               b(3) = (  0.000000  0.000000  1.000000 )  


     PseudoPot. # 1 for Si read from file:
     ./Si.pbe-rrkj.UPF
     MD5 check sum: cf7ab5690cd9a85b22c4813f7e365554
     Pseudo is Norm-conserving, Zval =  4.0
     Generated by new atomic code, or converted to UPF format
     Using radial grid of  883 points,  3 beta functions with: 
                l(1) =   0
                l(2) =   0
                l(3) =   1

     atomic species   valence    mass     pseudopotential
        Si             4.00    28.08600     Si( 1.00)

     24 Sym. Ops. (no inversion) found



   Cartesian axes

     site n.     atom                  positions (alat units)
         1           Si  tau(   1) = (   0.5000000   0.5000000   0.0000000  )
         2           Si  tau(   2) = (   0.0000000   0.0000000   0.0000000  )
         3           Si  tau(   3) = (   0.5000000   0.0000000   0.5000000  )
         4           Si  tau(   4) = (   0.0000000   0.5000000   0.5000000  )
         5           Si  tau(   5) = (   0.7500000   0.7500000   0.2500000  )
         6           Si  tau(   6) = (   0.2500000   0.2500000   0.2500000  )
         7           Si  tau(   7) = (   0.7500000   0.2500000   0.7500000  )
         8           Si  tau(   8) = (   0.2500000   0.7500000   0.7500000  )

     number of k points=    10
                       cart. coord. in units 2pi/alat
        k(    1) = (   0.1000000   0.1000000   0.1000000), wk =   0.1280000
        k(    2) = (   0.1000000   0.1000000   0.3000000), wk =   0.3840000
        k(    3) = (   0.1000000   0.1000000  -0.5000000), wk =   0.1920000
        k(    4) = (   0.1000000   0.3000000   0.3000000), wk =   0.3840000
        k(    5) = (   0.1000000   0.3000000  -0.5000000), wk =   0.3840000
        k(    6) = (   0.1000000  -0.5000000  -0.5000000), wk =   0.0960000
        k(    7) = (   0.3000000   0.3000000   0.3000000), wk =   0.1280000
        k(    8) = (   0.3000000   0.3000000  -0.5000000), wk =   0.1920000
        k(    9) = (   0.3000000  -0.5000000  -0.5000000), wk =   0.0960000
        k(   10) = (  -0.5000000  -0.5000000  -0.5000000), wk =   0.0160000

     Dense  grid:    37561 G-vectors     FFT dimensions: (  45,  45,  45)

     Estimated max dynamical RAM per process >       1.40 MB

     Estimated total dynamical RAM >      55.98 MB

     Initial potential from superposition of free atoms

     starting charge   31.99557, renormalised to   32.00000
     Starting wfcs are   32 randomized atomic wfcs

     total cpu time spent up to now is       21.2 secs

     Self-consistent Calculation

     iteration #  1     ecut=    40.00 Ry     beta= 0.70
     Davidson diagonalization with overlap
     ethr =  1.00E-02,  avg # of iterations =  2.0

     Threshold (ethr) on eigenvalues was too large:
     Diagonalizing with lowered threshold

     Davidson diagonalization with overlap
     ethr =  5.70E-04,  avg # of iterations =  2.0

     total cpu time spent up to now is      118.3 secs

     total energy              =     -62.95790552 Ry
     estimated scf accuracy    <       0.21502706 Ry

     iteration #  2     ecut=    40.00 Ry     beta= 0.70
     Davidson diagonalization with overlap
     ethr =  6.72E-04,  avg # of iterations =  1.0

     total cpu time spent up to now is      151.9 secs

     total energy              =     -62.96483512 Ry
     estimated scf accuracy    <       0.01231277 Ry

     iteration #  3     ecut=    40.00 Ry     beta= 0.70
     Davidson diagonalization with overlap
     ethr =  3.85E-05,  avg # of iterations =  2.2

     total cpu time spent up to now is      204.6 secs

     total energy              =     -62.96714180 Ry
     estimated scf accuracy    <       0.00035354 Ry

     iteration #  4     ecut=    40.00 Ry     beta= 0.70
     Davidson diagonalization with overlap
     ethr =  1.10E-06,  avg # of iterations =  4.9

     total cpu time spent up to now is      282.1 secs

     total energy              =     -62.96741429 Ry
     estimated scf accuracy    <       0.00001379 Ry

     iteration #  5     ecut=    40.00 Ry     beta= 0.70
     Davidson diagonalization with overlap
     ethr =  4.31E-08,  avg # of iterations =  4.9

     total cpu time spent up to now is      359.7 secs

     End of self-consistent calculation

          k = 0.1000 0.1000 0.1000 (  4737 PWs)   bands (ev):

    -5.6184  -2.3700  -2.3700  -2.3693  -0.8973  -0.8973  -0.8968   2.8117
     2.8117   2.8120   3.3311   3.3314   3.3314   4.8890   5.8225   5.8225

          k = 0.1000 0.1000 0.3000 (  4739 PWs)   bands (ev):

    -5.2782  -3.6245  -2.2466  -2.2461  -0.9170  -0.9166   0.6703   2.1906
     2.1908   3.1034   3.1035   3.2272   3.6009   3.6346   5.0296   5.1929

          k = 0.1000 0.1000-0.5000 (  4718 PWs)   bands (ev):

    -4.6071  -4.6066  -2.1564  -2.1559  -0.9482  -0.9479   1.9791   1.9793
     2.1977   2.1979   2.8530   2.8531   4.0661   4.0665   4.2213   4.2219

          k = 0.1000 0.3000 0.3000 (  4703 PWs)   bands (ev):

    -4.9483  -3.3734  -3.3729  -2.4810  -0.7792   0.2301   0.2303   1.8786
     2.4331   2.6700   2.6701   3.6589   3.6594   3.8511   4.2892   5.5197

          k = 0.1000 0.3000-0.5000 (  4706 PWs)   bands (ev):

    -4.3022  -4.3017  -2.9351  -2.9345  -0.3591  -0.3589   1.3081   1.3083
     2.1236   2.1239   3.4086   3.4089   3.8389   3.8390   4.6985   4.6986

          k = 0.1000-0.5000-0.5000 (  4712 PWs)   bands (ev):

    -3.7197  -3.7196  -3.7196  -3.7186   0.3939   0.3941   0.3941   0.3944
     2.6420   2.6423   2.6423   2.6426   4.7260   4.7262   4.7267   4.7267

          k = 0.3000 0.3000 0.3000 (  4698 PWs)   bands (ev):

    -4.6352  -3.2294  -3.2294  -3.2287  -0.3673  -0.3673  -0.3673   1.3053
     2.9507   2.9507   2.9512   4.1054   4.1057   4.1057   5.1195   5.1195

          k = 0.3000 0.3000-0.5000 (  4712 PWs)   bands (ev):

    -4.0354  -4.0348  -3.1227  -3.1222  -0.6877  -0.6876   0.3313   0.3316
     3.1181   3.1186   4.2226   4.2227   4.3638   4.3639   4.5688   4.5694

          k = 0.3000-0.5000-0.5000 (  4700 PWs)   bands (ev):

    -3.5725  -3.5724  -3.5724  -3.5714  -0.4407  -0.4404  -0.4404  -0.4402
     3.9547   3.9550   3.9550   3.9555   4.7938   4.7940   4.7945   4.7945

          k =-0.5000-0.5000-0.5000 (  4680 PWs)   bands (ev):

    -3.4634  -3.4634  -3.4634  -3.4624  -0.8250  -0.8249  -0.8249  -0.8249
     4.8385   4.8385   4.8387   4.8387   4.8387   4.8394   4.8394   4.8394

     highest occupied level (ev):     5.8225

!    total energy              =     -62.96742582 Ry
     estimated scf accuracy    <       0.00000043 Ry

     The total energy is the sum of the following terms:
     one-electron contribution =      18.47556413 Ry
     hartree contribution      =       4.44901409 Ry
     xc contribution           =     -19.16303623 Ry
     ewald contribution        =     -66.72896782 Ry

     convergence has been achieved in   5 iterations

     Forces acting on atoms (cartesian axes, Ry/au):

     atom    1 type  1   force =     0.00000000    0.00000000    0.00000000
     atom    2 type  1   force =     0.00000000    0.00000000    0.00000000
     atom    3 type  1   force =     0.00000000    0.00000000    0.00000000
     atom    4 type  1   force =     0.00000000    0.00000000    0.00000000
     atom    5 type  1   force =     0.00000318    0.00000318   -0.00000318
     atom    6 type  1   force =    -0.00000318   -0.00000318   -0.00000318
     atom    7 type  1   force =     0.00000318   -0.00000318    0.00000318
     atom    8 type  1   force =    -0.00000318    0.00000318    0.00000318

     Total force =     0.000011     Total SCF correction =     0.000528
     SCF correction compared to forces is large: reduce conv_thr to get better values


     Computing stress (Cartesian axis) and pressure

          total   stress  (Ry/bohr**3)                   (kbar)     P=        3.43
   0.00002330   0.00000000   0.00000000            3.43        0.00        0.00
   0.00000000   0.00002330   0.00000000            0.00        3.43        0.00
   0.00000000   0.00000000   0.00002330            0.00        0.00        3.43


     Writing output data file ./Si8.save/

     init_run     :      8.23s CPU     20.99s WALL (       1 calls)
     electrons    :    151.82s CPU    338.52s WALL (       1 calls)
     forces       :      9.90s CPU     22.67s WALL (       1 calls)
     stress       :      1.47s CPU      4.82s WALL (       1 calls)

     Called by init_run:
     wfcinit      :      8.20s CPU     20.97s WALL (       1 calls)
     potinit      :      0.01s CPU      0.01s WALL (       1 calls)
     hinit0       :      0.00s CPU      0.00s WALL (       1 calls)

     Called by electrons:
     c_bands      :    151.29s CPU    337.75s WALL (       6 calls)
     sum_band     :      0.48s CPU      0.61s WALL (       6 calls)
     v_of_rho     :      0.01s CPU      0.02s WALL (       6 calls)
     mix_rho      :      0.00s CPU      0.00s WALL (       6 calls)

     Called by c_bands:
     init_us_2    :      0.01s CPU      0.21s WALL (     150 calls)
     cegterg      :    141.61s CPU    319.57s WALL (      60 calls)

     Called by *egterg:
     cdiaghg      :     16.74s CPU     26.08s WALL (     220 calls)
     h_psi        :     52.51s CPU    146.50s WALL (     240 calls)
     g_psi        :      0.00s CPU      0.00s WALL (     170 calls)

     Called by h_psi:
     h_psi:calbec :     30.28s CPU     88.19s WALL (     240 calls)
     vloc_psi     :     12.85s CPU     14.52s WALL (     240 calls)
     add_vuspsi   :      9.38s CPU     43.73s WALL (     240 calls)

     General routines
     calbec       :     41.61s CPU    115.26s WALL (     290 calls)
     fft          :      0.01s CPU      0.02s WALL (      68 calls)
     ffts         :      0.00s CPU      0.00s WALL (       6 calls)
     fftw         :     13.29s CPU     15.09s WALL (    7370 calls)

     Parallel routines
     fft_scatt_xy :      0.04s CPU      0.05s WALL (    7444 calls)
     fft_scatt_yz :     12.99s CPU     14.64s WALL (    7444 calls)

     PWSCF        :   2m51.60s CPU   6m27.37s WALL


   This run was terminated on:  22: 8:49  24Feb2022            

=------------------------------------------------------------------------------=
   JOB DONE.
=------------------------------------------------------------------------------=
