
     Program PWSCF v.7.0 starts on 19Feb2022 at 19: 2:56 

     This program is part of the open-source Quantum ESPRESSO suite
     for quantum simulation of materials; please cite
         "P. Giannozzi et al., J. Phys.:Condens. Matter 21 395502 (2009);
         "P. Giannozzi et al., J. Phys.:Condens. Matter 29 465901 (2017);
         "P. Giannozzi et al., J. Chem. Phys. 152 154105 (2020);
          URL http://www.quantum-espresso.org", 
     in publications or presentations arising from this work. More details at
     http://www.quantum-espresso.org/quote

     Parallel version (MPI), running on     1 processors

     MPI processes distributed on     1 nodes
     88487 MiB available memory on the printing compute node when the environment starts
 
     Waiting for input...
     Reading input from standard input
Warning: card &CELL ignored
Warning: card  CELL_DYNAMICS = 'BFGS', ignored
Warning: card  PRESS=0.1D0, ignored
Warning: card / ignored

     Current dimensions of program PWSCF are:
     Max number of different atomic species (ntypx) = 10
     Max number of k-points (npk) =  40000
     Max angular momentum in pseudopotentials (lmaxx) =  4

     Subspace diagonalization in iterative solution of the eigenvalue problem:
     a serial algorithm will be used

 
     G-vector sticks info
     --------------------
     sticks:   dense  smooth     PW     G-vecs:    dense   smooth      PW
     Sum        1303     433    139                31283     5985    1067
 
     Using Slab Decomposition
 


     bravais-lattice index     =            2
     lattice parameter (alat)  =       8.9100  a.u.
     unit-cell volume          =     176.8370 (a.u.)^3
     number of atoms/cell      =            2
     number of atomic types    =            2
     number of electrons       =         8.00
     number of Kohn-Sham states=            4
     kinetic-energy cutoff     =      40.0000  Ry
     charge density cutoff     =     480.0000  Ry
     scf convergence threshold =      1.0E-08
     mixing beta               =       0.7000
     number of iterations used =            8  plain     mixing
     Exchange-correlation= SLA  PZ   NOGX NOGC
                           (   1   1   0   0   0   0   0)

     celldm(1)=   8.910000  celldm(2)=   0.000000  celldm(3)=   0.000000
     celldm(4)=   0.000000  celldm(5)=   0.000000  celldm(6)=   0.000000

     crystal axes: (cart. coord. in units of alat)
               a(1) = (  -0.500000   0.000000   0.500000 )  
               a(2) = (   0.000000   0.500000   0.500000 )  
               a(3) = (  -0.500000   0.500000   0.000000 )  

     reciprocal axes: (cart. coord. in units 2 pi/alat)
               b(1) = ( -1.000000 -1.000000  1.000000 )  
               b(2) = (  1.000000  1.000000  1.000000 )  
               b(3) = ( -1.000000  1.000000 -1.000000 )  


     PseudoPot. # 1 for B  read from file:
     ./pseudo_dir/B_LDA.UPF
     MD5 check sum: a9970de764dbc07c3a3d9583c605c3b2
     Pseudo is Ultrasoft + core correction, Zval =  3.0
     Generated by new atomic code, or converted to UPF format
     Using radial grid of  781 points,  4 beta functions with: 
                l(1) =   0
                l(2) =   0
                l(3) =   1
                l(4) =   1
     Q(r) pseudized with  8 coefficients,  rinner =    1.100   1.100   1.100


     PseudoPot. # 2 for As read from file:
     ./pseudo_dir/As_LDA.UPF
     MD5 check sum: 6d2e8cbe4ed9d0db7c6ef7a361cc050d
     Pseudo is Ultrasoft + core correction, Zval =  5.0
     Generated by new atomic code, or converted to UPF format
     Using radial grid of  875 points,  6 beta functions with: 
                l(1) =   0
                l(2) =   0
                l(3) =   1
                l(4) =   1
                l(5) =   2
                l(6) =   2
     Q(r) pseudized with  8 coefficients,  rinner =    1.300   1.300   1.300
                                                       1.300   1.300

     atomic species   valence    mass     pseudopotential
        B              3.00    10.81100     B ( 1.00)
        As             5.00    74.92160     As( 1.00)

     24 Sym. Ops. (no inversion) found



   Cartesian axes

     site n.     atom                  positions (alat units)
         1           B   tau(   1) = (   0.0000000   0.0000000   0.0000000  )
         2           As  tau(   2) = (  -0.2500000   0.2500000   0.2500000  )

     number of k points=     8
                       cart. coord. in units 2pi/alat
        k(    1) = (   0.0000000   0.0000000   0.0000000), wk =   0.0312500
        k(    2) = (  -0.2500000   0.2500000  -0.2500000), wk =   0.2500000
        k(    3) = (   0.5000000  -0.5000000   0.5000000), wk =   0.1250000
        k(    4) = (   0.0000000   0.5000000   0.0000000), wk =   0.1875000
        k(    5) = (   0.7500000  -0.2500000   0.7500000), wk =   0.7500000
        k(    6) = (   0.5000000   0.0000000   0.5000000), wk =   0.3750000
        k(    7) = (   0.0000000  -1.0000000   0.0000000), wk =   0.0937500
        k(    8) = (  -0.5000000  -1.0000000   0.0000000), wk =   0.1875000

     Dense  grid:    31283 G-vectors     FFT dimensions: (  45,  45,  45)

     Smooth grid:     5985 G-vectors     FFT dimensions: (  25,  25,  25)

     Estimated max dynamical RAM per process >     120.20 MB

     Initial potential from superposition of free atoms

     starting charge       7.9996, renormalised to       8.0000
     Starting wfcs are    8 randomized atomic wfcs

     total cpu time spent up to now is        3.4 secs

     Self-consistent Calculation

     iteration #  1     ecut=    40.00 Ry     beta= 0.70
     CG style diagonalization
     ethr =  1.00E-02,  avg # of iterations =  2.6

     total cpu time spent up to now is        4.0 secs

     total energy              =     -46.13291934 Ry
     estimated scf accuracy    <       0.16335582 Ry

     iteration #  2     ecut=    40.00 Ry     beta= 0.70
     CG style diagonalization
     ethr =  2.04E-03,  avg # of iterations =  4.2

     total cpu time spent up to now is        4.7 secs

     total energy              =     -46.16900622 Ry
     estimated scf accuracy    <       0.04134986 Ry

     iteration #  3     ecut=    40.00 Ry     beta= 0.70
     CG style diagonalization
     ethr =  5.17E-04,  avg # of iterations =  4.1

     total cpu time spent up to now is        5.3 secs

     total energy              =     -46.17789644 Ry
     estimated scf accuracy    <       0.00043085 Ry

     iteration #  4     ecut=    40.00 Ry     beta= 0.70
     CG style diagonalization
     ethr =  5.39E-06,  avg # of iterations =  4.5

     total cpu time spent up to now is        6.0 secs

     total energy              =     -46.17818822 Ry
     estimated scf accuracy    <       0.00009482 Ry

     iteration #  5     ecut=    40.00 Ry     beta= 0.70
     CG style diagonalization
     ethr =  1.19E-06,  avg # of iterations =  4.2

     total cpu time spent up to now is        6.7 secs

     total energy              =     -46.17821205 Ry
     estimated scf accuracy    <       0.00000414 Ry

     iteration #  6     ecut=    40.00 Ry     beta= 0.70
     CG style diagonalization
     ethr =  5.18E-08,  avg # of iterations =  5.2

     total cpu time spent up to now is        7.3 secs

     total energy              =     -46.17821532 Ry
     estimated scf accuracy    <       0.00000042 Ry

     iteration #  7     ecut=    40.00 Ry     beta= 0.70
     CG style diagonalization
     ethr =  5.19E-09,  avg # of iterations =  4.9

     total cpu time spent up to now is        8.0 secs

     total energy              =     -46.17821557 Ry
     estimated scf accuracy    <       0.00000013 Ry

     iteration #  8     ecut=    40.00 Ry     beta= 0.70
     CG style diagonalization
     ethr =  1.67E-09,  avg # of iterations =  4.6

     total cpu time spent up to now is        8.7 secs

     total energy              =     -46.17821563 Ry
     estimated scf accuracy    <       0.00000006 Ry

     iteration #  9     ecut=    40.00 Ry     beta= 0.70
     CG style diagonalization
     ethr =  7.41E-10,  avg # of iterations =  3.9

     total cpu time spent up to now is        9.3 secs

     End of self-consistent calculation

          k = 0.0000 0.0000 0.0000 (   749 PWs)   bands (ev):

    -6.8275   8.9458   8.9458   8.9458

          k =-0.2500 0.2500-0.2500 (   757 PWs)   bands (ev):

    -5.7912   3.8776   7.7521   7.7521

          k = 0.5000-0.5000 0.5000 (   754 PWs)   bands (ev):

    -3.8300  -0.1218   7.0632   7.0632

          k = 0.0000 0.5000 0.0000 (   769 PWs)   bands (ev):

    -5.4363   4.8540   6.1216   6.1216

          k = 0.7500-0.2500 0.7500 (   758 PWs)   bands (ev):

    -3.4256   1.0642   4.0292   5.6379

          k = 0.5000 0.0000 0.5000 (   754 PWs)   bands (ev):

    -4.2141   2.1856   3.6301   6.9018

          k = 0.0000-1.0000 0.0000 (   740 PWs)   bands (ev):

    -2.4952   0.2871   4.6992   4.6992

          k =-0.5000-1.0000 0.0000 (   744 PWs)   bands (ev):

    -2.3116   0.8201   3.1770   3.4772

     highest occupied level (ev):     8.9458

!    total energy              =     -46.17821564 Ry
     estimated scf accuracy    <          4.1E-10 Ry

     The total energy is the sum of the following terms:
     one-electron contribution =       6.99188595 Ry
     hartree contribution      =       1.23208622 Ry
     xc contribution           =     -34.20652119 Ry
     ewald contribution        =     -20.19566662 Ry

     convergence has been achieved in   9 iterations

     Forces acting on atoms (cartesian axes, Ry/au):

     atom    1 type  1   force =     0.00000000    0.00000000    0.00000000
     atom    2 type  2   force =     0.00000000    0.00000000   -0.00000000

     Total force =     0.000000     Total SCF correction =     0.000000


     Computing stress (Cartesian axis) and pressure

          total   stress  (Ry/bohr**3)                   (kbar)     P=       39.07
   0.00026556   0.00000000  -0.00000000           39.07        0.00       -0.00
   0.00000000   0.00026556   0.00000000            0.00       39.07        0.00
   0.00000000   0.00000000   0.00026556            0.00        0.00       39.07


     Writing all to output data dir ./2a1.save/
 
     init_run     :      1.76s CPU      2.02s WALL (       1 calls)
     electrons    :      5.35s CPU      5.97s WALL (       1 calls)
     forces       :      0.27s CPU      0.29s WALL (       1 calls)
     stress       :      2.13s CPU      2.23s WALL (       1 calls)

     Called by init_run:
     wfcinit      :      0.08s CPU      0.15s WALL (       1 calls)
     potinit      :      0.04s CPU      0.06s WALL (       1 calls)
     hinit0       :      1.42s CPU      1.53s WALL (       1 calls)

     Called by electrons:
     c_bands      :      1.49s CPU      1.66s WALL (       9 calls)
     sum_band     :      2.09s CPU      2.30s WALL (       9 calls)
     v_of_rho     :      0.23s CPU      0.24s WALL (      10 calls)
     newd         :      1.60s CPU      1.80s WALL (      10 calls)
     mix_rho      :      0.06s CPU      0.07s WALL (       9 calls)

     Called by c_bands:
     init_us_2    :      0.15s CPU      0.17s WALL (     168 calls)
     init_us_2:cp :      0.15s CPU      0.17s WALL (     168 calls)
     ccgdiagg     :      1.16s CPU      1.28s WALL (      72 calls)
     wfcrot       :      0.31s CPU      0.38s WALL (      72 calls)

     Called by *cgdiagg:
     h_psi        :      1.17s CPU      1.29s WALL (    1042 calls)
     s_psi        :      0.09s CPU      0.10s WALL (    2012 calls)

     Called by h_psi:
     h_psi:calbec :      0.09s CPU      0.11s WALL (    1042 calls)
     vloc_psi     :      0.98s CPU      1.06s WALL (    1042 calls)
     add_vuspsi   :      0.06s CPU      0.06s WALL (    1042 calls)
     hs_1psi      :      0.99s CPU      1.09s WALL (     970 calls)
     s_1psi       :      0.11s CPU      0.12s WALL (     970 calls)

     General routines
     calbec       :      0.12s CPU      0.15s WALL (    2124 calls)
     fft          :      0.16s CPU      0.19s WALL (      66 calls)
     ffts         :      0.01s CPU      0.01s WALL (      19 calls)
     fftw         :      0.94s CPU      1.01s WALL (    2868 calls)
     interpolate  :      0.04s CPU      0.04s WALL (      10 calls)
 
     Parallel routines
 
     PWSCF        :     10.29s CPU     12.33s WALL

 
   This run was terminated on:  19: 3: 9  19Feb2022            

=------------------------------------------------------------------------------=
   JOB DONE.
=------------------------------------------------------------------------------=
