
     Program PWSCF v.7.0 starts on 19Feb2022 at 19: 0:37 

     This program is part of the open-source Quantum ESPRESSO suite
     for quantum simulation of materials; please cite
         "P. Giannozzi et al., J. Phys.:Condens. Matter 21 395502 (2009);
         "P. Giannozzi et al., J. Phys.:Condens. Matter 29 465901 (2017);
         "P. Giannozzi et al., J. Chem. Phys. 152 154105 (2020);
          URL http://www.quantum-espresso.org", 
     in publications or presentations arising from this work. More details at
     http://www.quantum-espresso.org/quote

     Parallel version (MPI), running on     1 processors

     MPI processes distributed on     1 nodes
     88512 MiB available memory on the printing compute node when the environment starts
 
     Waiting for input...
     Reading input from standard input
Warning: card &CELL ignored
Warning: card  CELL_DYNAMICS = 'BFGS', ignored
Warning: card  PRESS=0.1D0, ignored
Warning: card / ignored

     Current dimensions of program PWSCF are:
     Max number of different atomic species (ntypx) = 10
     Max number of k-points (npk) =  40000
     Max angular momentum in pseudopotentials (lmaxx) =  4

     Subspace diagonalization in iterative solution of the eigenvalue problem:
     a serial algorithm will be used

 
     G-vector sticks info
     --------------------
     sticks:   dense  smooth     PW     G-vecs:    dense   smooth      PW
     Sum        1393     463    151                34333     6615    1211
 
     Using Slab Decomposition
 


     bravais-lattice index     =            2
     lattice parameter (alat)  =       9.1800  a.u.
     unit-cell volume          =     193.4052 (a.u.)^3
     number of atoms/cell      =            2
     number of atomic types    =            2
     number of electrons       =         8.00
     number of Kohn-Sham states=            4
     kinetic-energy cutoff     =      40.0000  Ry
     charge density cutoff     =     480.0000  Ry
     scf convergence threshold =      1.0E-08
     mixing beta               =       0.7000
     number of iterations used =            8  plain     mixing
     Exchange-correlation= SLA  PZ   NOGX NOGC
                           (   1   1   0   0   0   0   0)

     celldm(1)=   9.180000  celldm(2)=   0.000000  celldm(3)=   0.000000
     celldm(4)=   0.000000  celldm(5)=   0.000000  celldm(6)=   0.000000

     crystal axes: (cart. coord. in units of alat)
               a(1) = (  -0.500000   0.000000   0.500000 )  
               a(2) = (   0.000000   0.500000   0.500000 )  
               a(3) = (  -0.500000   0.500000   0.000000 )  

     reciprocal axes: (cart. coord. in units 2 pi/alat)
               b(1) = ( -1.000000 -1.000000  1.000000 )  
               b(2) = (  1.000000  1.000000  1.000000 )  
               b(3) = ( -1.000000  1.000000 -1.000000 )  


     PseudoPot. # 1 for B  read from file:
     ./pseudo_dir/B_LDA.UPF
     MD5 check sum: a9970de764dbc07c3a3d9583c605c3b2
     Pseudo is Ultrasoft + core correction, Zval =  3.0
     Generated by new atomic code, or converted to UPF format
     Using radial grid of  781 points,  4 beta functions with: 
                l(1) =   0
                l(2) =   0
                l(3) =   1
                l(4) =   1
     Q(r) pseudized with  8 coefficients,  rinner =    1.100   1.100   1.100


     PseudoPot. # 2 for As read from file:
     ./pseudo_dir/As_LDA.UPF
     MD5 check sum: 6d2e8cbe4ed9d0db7c6ef7a361cc050d
     Pseudo is Ultrasoft + core correction, Zval =  5.0
     Generated by new atomic code, or converted to UPF format
     Using radial grid of  875 points,  6 beta functions with: 
                l(1) =   0
                l(2) =   0
                l(3) =   1
                l(4) =   1
                l(5) =   2
                l(6) =   2
     Q(r) pseudized with  8 coefficients,  rinner =    1.300   1.300   1.300
                                                       1.300   1.300

     atomic species   valence    mass     pseudopotential
        B              3.00    10.81100     B ( 1.00)
        As             5.00    74.92160     As( 1.00)

     24 Sym. Ops. (no inversion) found



   Cartesian axes

     site n.     atom                  positions (alat units)
         1           B   tau(   1) = (   0.0000000   0.0000000   0.0000000  )
         2           As  tau(   2) = (  -0.2500000   0.2500000   0.2500000  )

     number of k points=     8
                       cart. coord. in units 2pi/alat
        k(    1) = (   0.0000000   0.0000000   0.0000000), wk =   0.0312500
        k(    2) = (  -0.2500000   0.2500000  -0.2500000), wk =   0.2500000
        k(    3) = (   0.5000000  -0.5000000   0.5000000), wk =   0.1250000
        k(    4) = (   0.0000000   0.5000000   0.0000000), wk =   0.1875000
        k(    5) = (   0.7500000  -0.2500000   0.7500000), wk =   0.7500000
        k(    6) = (   0.5000000   0.0000000   0.5000000), wk =   0.3750000
        k(    7) = (   0.0000000  -1.0000000   0.0000000), wk =   0.0937500
        k(    8) = (  -0.5000000  -1.0000000   0.0000000), wk =   0.1875000

     Dense  grid:    34333 G-vectors     FFT dimensions: (  45,  45,  45)

     Smooth grid:     6615 G-vectors     FFT dimensions: (  27,  27,  27)

     Estimated max dynamical RAM per process >     130.97 MB

     Initial potential from superposition of free atoms

     starting charge       7.9996, renormalised to       8.0000
     Starting wfcs are    8 randomized atomic wfcs

     total cpu time spent up to now is        3.4 secs

     Self-consistent Calculation

     iteration #  1     ecut=    40.00 Ry     beta= 0.70
     CG style diagonalization
     ethr =  1.00E-02,  avg # of iterations =  2.6

     total cpu time spent up to now is        4.1 secs

     total energy              =     -46.13882584 Ry
     estimated scf accuracy    <       0.12990869 Ry

     iteration #  2     ecut=    40.00 Ry     beta= 0.70
     CG style diagonalization
     ethr =  1.62E-03,  avg # of iterations =  4.3

     total cpu time spent up to now is        4.8 secs

     total energy              =     -46.16618224 Ry
     estimated scf accuracy    <       0.03957587 Ry

     iteration #  3     ecut=    40.00 Ry     beta= 0.70
     CG style diagonalization
     ethr =  4.95E-04,  avg # of iterations =  4.1

     total cpu time spent up to now is        5.6 secs

     total energy              =     -46.17498333 Ry
     estimated scf accuracy    <       0.00057909 Ry

     iteration #  4     ecut=    40.00 Ry     beta= 0.70
     CG style diagonalization
     ethr =  7.24E-06,  avg # of iterations =  4.2

     total cpu time spent up to now is        6.3 secs

     total energy              =     -46.17528777 Ry
     estimated scf accuracy    <       0.00004580 Ry

     iteration #  5     ecut=    40.00 Ry     beta= 0.70
     CG style diagonalization
     ethr =  5.72E-07,  avg # of iterations =  4.1

     total cpu time spent up to now is        7.0 secs

     total energy              =     -46.17529719 Ry
     estimated scf accuracy    <       0.00000070 Ry

     iteration #  6     ecut=    40.00 Ry     beta= 0.70
     CG style diagonalization
     ethr =  8.70E-09,  avg # of iterations =  6.2

     total cpu time spent up to now is        7.8 secs

     total energy              =     -46.17529943 Ry
     estimated scf accuracy    <       0.00000016 Ry

     iteration #  7     ecut=    40.00 Ry     beta= 0.70
     CG style diagonalization
     ethr =  2.04E-09,  avg # of iterations =  4.3

     total cpu time spent up to now is        8.5 secs

     total energy              =     -46.17529948 Ry
     estimated scf accuracy    <       0.00000002 Ry

     iteration #  8     ecut=    40.00 Ry     beta= 0.70
     CG style diagonalization
     ethr =  1.97E-10,  avg # of iterations =  4.4

     total cpu time spent up to now is        9.3 secs

     End of self-consistent calculation

          k = 0.0000 0.0000 0.0000 (   869 PWs)   bands (ev):

    -7.2183   7.7437   7.7437   7.7437

          k =-0.2500 0.2500-0.2500 (   827 PWs)   bands (ev):

    -6.2694   2.9603   6.6537   6.6537

          k = 0.5000-0.5000 0.5000 (   832 PWs)   bands (ev):

    -4.5455  -0.6696   6.0133   6.0133

          k = 0.0000 0.5000 0.0000 (   833 PWs)   bands (ev):

    -5.9425   3.6960   5.1786   5.1786

          k = 0.7500-0.2500 0.7500 (   822 PWs)   bands (ev):

    -4.1561   0.3158   3.2126   4.7275

          k = 0.5000 0.0000 0.5000 (   819 PWs)   bands (ev):

    -4.8486   1.3069   2.8905   5.8746

          k = 0.0000-1.0000 0.0000 (   806 PWs)   bands (ev):

    -3.3502  -0.4157   3.8686   3.8686

          k =-0.5000-1.0000 0.0000 (   848 PWs)   bands (ev):

    -3.2108   0.0264   2.5199   2.8010

     highest occupied level (ev):     7.7437

!    total energy              =     -46.17529948 Ry
     estimated scf accuracy    <          1.7E-09 Ry

     The total energy is the sum of the following terms:
     one-electron contribution =       6.18769118 Ry
     hartree contribution      =       1.31066759 Ry
     xc contribution           =     -34.07198183 Ry
     ewald contribution        =     -19.60167643 Ry

     convergence has been achieved in   8 iterations

     Forces acting on atoms (cartesian axes, Ry/au):

     atom    1 type  1   force =    -0.00000000   -0.00000000    0.00000000
     atom    2 type  2   force =     0.00000000    0.00000000   -0.00000000

     Total force =     0.000000     Total SCF correction =     0.000000


     Computing stress (Cartesian axis) and pressure

          total   stress  (Ry/bohr**3)                   (kbar)     P=      -82.89
  -0.00056350  -0.00000000   0.00000000          -82.89       -0.00        0.00
  -0.00000000  -0.00056350  -0.00000000           -0.00      -82.89       -0.00
   0.00000000  -0.00000000  -0.00056350            0.00       -0.00      -82.89


     Writing all to output data dir ./2a_2.save/
 
     init_run     :      1.79s CPU      2.04s WALL (       1 calls)
     electrons    :      5.34s CPU      5.91s WALL (       1 calls)
     forces       :      0.28s CPU      0.31s WALL (       1 calls)
     stress       :      2.33s CPU      2.45s WALL (       1 calls)

     Called by init_run:
     wfcinit      :      0.09s CPU      0.16s WALL (       1 calls)
     potinit      :      0.04s CPU      0.06s WALL (       1 calls)
     hinit0       :      1.42s CPU      1.51s WALL (       1 calls)

     Called by electrons:
     c_bands      :      1.62s CPU      1.77s WALL (       8 calls)
     sum_band     :      2.04s CPU      2.22s WALL (       8 calls)
     v_of_rho     :      0.21s CPU      0.22s WALL (       9 calls)
     newd         :      1.57s CPU      1.77s WALL (       9 calls)
     mix_rho      :      0.05s CPU      0.06s WALL (       8 calls)

     Called by c_bands:
     init_us_2    :      0.16s CPU      0.17s WALL (     152 calls)
     init_us_2:cp :      0.15s CPU      0.17s WALL (     152 calls)
     ccgdiagg     :      1.26s CPU      1.38s WALL (      64 calls)
     wfcrot       :      0.34s CPU      0.41s WALL (      64 calls)

     Called by *cgdiagg:
     h_psi        :      1.32s CPU      1.43s WALL (     937 calls)
     s_psi        :      0.08s CPU      0.09s WALL (    1810 calls)

     Called by h_psi:
     h_psi:calbec :      0.09s CPU      0.11s WALL (     937 calls)
     vloc_psi     :      1.12s CPU      1.20s WALL (     937 calls)
     add_vuspsi   :      0.06s CPU      0.06s WALL (     937 calls)
     hs_1psi      :      1.10s CPU      1.19s WALL (     873 calls)
     s_1psi       :      0.10s CPU      0.12s WALL (     873 calls)

     General routines
     calbec       :      0.13s CPU      0.16s WALL (    1914 calls)
     fft          :      0.15s CPU      0.18s WALL (      60 calls)
     ffts         :      0.01s CPU      0.01s WALL (      17 calls)
     fftw         :      1.07s CPU      1.14s WALL (    2578 calls)
     interpolate  :      0.03s CPU      0.04s WALL (       9 calls)
 
     Parallel routines
 
     PWSCF        :     10.54s CPU     12.49s WALL

 
   This run was terminated on:  19: 0:49  19Feb2022            

=------------------------------------------------------------------------------=
   JOB DONE.
=------------------------------------------------------------------------------=
