
     Program PWSCF v.7.0 starts on 19Feb2022 at 18:59:59 

     This program is part of the open-source Quantum ESPRESSO suite
     for quantum simulation of materials; please cite
         "P. Giannozzi et al., J. Phys.:Condens. Matter 21 395502 (2009);
         "P. Giannozzi et al., J. Phys.:Condens. Matter 29 465901 (2017);
         "P. Giannozzi et al., J. Chem. Phys. 152 154105 (2020);
          URL http://www.quantum-espresso.org", 
     in publications or presentations arising from this work. More details at
     http://www.quantum-espresso.org/quote

     Parallel version (MPI), running on     1 processors

     MPI processes distributed on     1 nodes
     88492 MiB available memory on the printing compute node when the environment starts
 
     Waiting for input...
     Reading input from standard input
Warning: card &CELL ignored
Warning: card  CELL_DYNAMICS = 'BFGS', ignored
Warning: card  PRESS=0.1D0, ignored
Warning: card / ignored

     Current dimensions of program PWSCF are:
     Max number of different atomic species (ntypx) = 10
     Max number of k-points (npk) =  40000
     Max angular momentum in pseudopotentials (lmaxx) =  4

     Subspace diagonalization in iterative solution of the eigenvalue problem:
     a serial algorithm will be used

 
     G-vector sticks info
     --------------------
     sticks:   dense  smooth     PW     G-vecs:    dense   smooth      PW
     Sum        1453     499    151                36325     6975    1243
 
     Using Slab Decomposition
 


     bravais-lattice index     =            2
     lattice parameter (alat)  =       9.3600  a.u.
     unit-cell volume          =     205.0065 (a.u.)^3
     number of atoms/cell      =            2
     number of atomic types    =            2
     number of electrons       =         8.00
     number of Kohn-Sham states=            4
     kinetic-energy cutoff     =      40.0000  Ry
     charge density cutoff     =     480.0000  Ry
     scf convergence threshold =      1.0E-08
     mixing beta               =       0.7000
     number of iterations used =            8  plain     mixing
     Exchange-correlation= SLA  PZ   NOGX NOGC
                           (   1   1   0   0   0   0   0)

     celldm(1)=   9.360000  celldm(2)=   0.000000  celldm(3)=   0.000000
     celldm(4)=   0.000000  celldm(5)=   0.000000  celldm(6)=   0.000000

     crystal axes: (cart. coord. in units of alat)
               a(1) = (  -0.500000   0.000000   0.500000 )  
               a(2) = (   0.000000   0.500000   0.500000 )  
               a(3) = (  -0.500000   0.500000   0.000000 )  

     reciprocal axes: (cart. coord. in units 2 pi/alat)
               b(1) = ( -1.000000 -1.000000  1.000000 )  
               b(2) = (  1.000000  1.000000  1.000000 )  
               b(3) = ( -1.000000  1.000000 -1.000000 )  


     PseudoPot. # 1 for B  read from file:
     ./pseudo_dir/B_LDA.UPF
     MD5 check sum: a9970de764dbc07c3a3d9583c605c3b2
     Pseudo is Ultrasoft + core correction, Zval =  3.0
     Generated by new atomic code, or converted to UPF format
     Using radial grid of  781 points,  4 beta functions with: 
                l(1) =   0
                l(2) =   0
                l(3) =   1
                l(4) =   1
     Q(r) pseudized with  8 coefficients,  rinner =    1.100   1.100   1.100


     PseudoPot. # 2 for As read from file:
     ./pseudo_dir/As_LDA.UPF
     MD5 check sum: 6d2e8cbe4ed9d0db7c6ef7a361cc050d
     Pseudo is Ultrasoft + core correction, Zval =  5.0
     Generated by new atomic code, or converted to UPF format
     Using radial grid of  875 points,  6 beta functions with: 
                l(1) =   0
                l(2) =   0
                l(3) =   1
                l(4) =   1
                l(5) =   2
                l(6) =   2
     Q(r) pseudized with  8 coefficients,  rinner =    1.300   1.300   1.300
                                                       1.300   1.300

     atomic species   valence    mass     pseudopotential
        B              3.00    10.81100     B ( 1.00)
        As             5.00    74.92160     As( 1.00)

     24 Sym. Ops. (no inversion) found



   Cartesian axes

     site n.     atom                  positions (alat units)
         1           B   tau(   1) = (   0.0000000   0.0000000   0.0000000  )
         2           As  tau(   2) = (  -0.2500000   0.2500000   0.2500000  )

     number of k points=     8
                       cart. coord. in units 2pi/alat
        k(    1) = (   0.0000000   0.0000000   0.0000000), wk =   0.0312500
        k(    2) = (  -0.2500000   0.2500000  -0.2500000), wk =   0.2500000
        k(    3) = (   0.5000000  -0.5000000   0.5000000), wk =   0.1250000
        k(    4) = (   0.0000000   0.5000000   0.0000000), wk =   0.1875000
        k(    5) = (   0.7500000  -0.2500000   0.7500000), wk =   0.7500000
        k(    6) = (   0.5000000   0.0000000   0.5000000), wk =   0.3750000
        k(    7) = (   0.0000000  -1.0000000   0.0000000), wk =   0.0937500
        k(    8) = (  -0.5000000  -1.0000000   0.0000000), wk =   0.1875000

     Dense  grid:    36325 G-vectors     FFT dimensions: (  48,  48,  48)

     Smooth grid:     6975 G-vectors     FFT dimensions: (  27,  27,  27)

     Estimated max dynamical RAM per process >     139.34 MB

     Initial potential from superposition of free atoms

     starting charge       7.9996, renormalised to       8.0000
     Starting wfcs are    8 randomized atomic wfcs

     total cpu time spent up to now is        3.4 secs

     Self-consistent Calculation

     iteration #  1     ecut=    40.00 Ry     beta= 0.70
     CG style diagonalization
     ethr =  1.00E-02,  avg # of iterations =  2.4

     total cpu time spent up to now is        4.1 secs

     total energy              =     -46.13498536 Ry
     estimated scf accuracy    <       0.11122792 Ry

     iteration #  2     ecut=    40.00 Ry     beta= 0.70
     CG style diagonalization
     ethr =  1.39E-03,  avg # of iterations =  4.4

     total cpu time spent up to now is        4.9 secs

     total energy              =     -46.15754055 Ry
     estimated scf accuracy    <       0.03830404 Ry

     iteration #  3     ecut=    40.00 Ry     beta= 0.70
     CG style diagonalization
     ethr =  4.79E-04,  avg # of iterations =  4.1

     total cpu time spent up to now is        5.6 secs

     total energy              =     -46.16611911 Ry
     estimated scf accuracy    <       0.00071267 Ry

     iteration #  4     ecut=    40.00 Ry     beta= 0.70
     CG style diagonalization
     ethr =  8.91E-06,  avg # of iterations =  4.2

     total cpu time spent up to now is        6.4 secs

     total energy              =     -46.16642484 Ry
     estimated scf accuracy    <       0.00003566 Ry

     iteration #  5     ecut=    40.00 Ry     beta= 0.70
     CG style diagonalization
     ethr =  4.46E-07,  avg # of iterations =  4.0

     total cpu time spent up to now is        7.1 secs

     total energy              =     -46.16643505 Ry
     estimated scf accuracy    <       0.00000014 Ry

     iteration #  6     ecut=    40.00 Ry     beta= 0.70
     CG style diagonalization
     ethr =  1.72E-09,  avg # of iterations =  7.2

     total cpu time spent up to now is        8.0 secs

     total energy              =     -46.16643652 Ry
     estimated scf accuracy    <       0.00000004 Ry

     iteration #  7     ecut=    40.00 Ry     beta= 0.70
     CG style diagonalization
     ethr =  4.57E-10,  avg # of iterations =  4.1

     total cpu time spent up to now is        8.8 secs

     End of self-consistent calculation

          k = 0.0000 0.0000 0.0000 (   893 PWs)   bands (ev):

    -7.4583   7.0112   7.0112   7.0112

          k =-0.2500 0.2500-0.2500 (   890 PWs)   bands (ev):

    -6.5647   2.3948   5.9858   5.9858

          k = 0.5000-0.5000 0.5000 (   886 PWs)   bands (ev):

    -4.9839  -1.0079   5.3759   5.3759

          k = 0.0000 0.5000 0.0000 (   881 PWs)   bands (ev):

    -6.2557   2.9874   4.6051   4.6051

          k = 0.7500-0.2500 0.7500 (   875 PWs)   bands (ev):

    -4.6083  -0.1448   2.7227   4.1743

          k = 0.5000 0.0000 0.5000 (   883 PWs)   bands (ev):

    -5.2419   0.7686   2.4441   5.2505

          k = 0.0000-1.0000 0.0000 (   846 PWs)   bands (ev):

    -3.8777  -0.8440   3.3642   3.3642

          k =-0.5000-1.0000 0.0000 (   876 PWs)   bands (ev):

    -3.7618  -0.4537   2.1191   2.3880

     highest occupied level (ev):     7.0112

!    total energy              =     -46.16643653 Ry
     estimated scf accuracy    <          4.3E-09 Ry

     The total energy is the sum of the following terms:
     one-electron contribution =       5.68260573 Ry
     hartree contribution      =       1.36537930 Ry
     xc contribution           =     -33.98970045 Ry
     ewald contribution        =     -19.22472111 Ry

     convergence has been achieved in   7 iterations

     Forces acting on atoms (cartesian axes, Ry/au):

     atom    1 type  1   force =    -0.00000000   -0.00000000    0.00000000
     atom    2 type  2   force =     0.00000000    0.00000000   -0.00000000

     Total force =     0.000000     Total SCF correction =     0.000000


     Computing stress (Cartesian axis) and pressure

          total   stress  (Ry/bohr**3)                   (kbar)     P=     -140.02
  -0.00095182   0.00000000   0.00000000         -140.02        0.00        0.00
   0.00000000  -0.00095182   0.00000000            0.00     -140.02        0.00
   0.00000000   0.00000000  -0.00095182            0.00        0.00     -140.02


     Writing all to output data dir ./2a_4.save/
 
     init_run     :      1.82s CPU      2.08s WALL (       1 calls)
     electrons    :      4.89s CPU      5.44s WALL (       1 calls)
     forces       :      0.30s CPU      0.33s WALL (       1 calls)
     stress       :      2.47s CPU      2.57s WALL (       1 calls)

     Called by init_run:
     wfcinit      :      0.09s CPU      0.15s WALL (       1 calls)
     potinit      :      0.05s CPU      0.07s WALL (       1 calls)
     hinit0       :      1.42s CPU      1.51s WALL (       1 calls)

     Called by electrons:
     c_bands      :      1.46s CPU      1.59s WALL (       7 calls)
     sum_band     :      1.87s CPU      2.05s WALL (       7 calls)
     v_of_rho     :      0.22s CPU      0.23s WALL (       8 calls)
     newd         :      1.47s CPU      1.67s WALL (       8 calls)
     mix_rho      :      0.05s CPU      0.05s WALL (       7 calls)

     Called by c_bands:
     init_us_2    :      0.15s CPU      0.16s WALL (     136 calls)
     init_us_2:cp :      0.15s CPU      0.16s WALL (     136 calls)
     ccgdiagg     :      1.15s CPU      1.25s WALL (      56 calls)
     wfcrot       :      0.30s CPU      0.37s WALL (      56 calls)

     Called by *cgdiagg:
     h_psi        :      1.19s CPU      1.28s WALL (     837 calls)
     s_psi        :      0.08s CPU      0.09s WALL (    1618 calls)

     Called by h_psi:
     h_psi:calbec :      0.09s CPU      0.11s WALL (     837 calls)
     vloc_psi     :      1.01s CPU      1.07s WALL (     837 calls)
     add_vuspsi   :      0.05s CPU      0.06s WALL (     837 calls)
     hs_1psi      :      1.00s CPU      1.07s WALL (     781 calls)
     s_1psi       :      0.10s CPU      0.11s WALL (     781 calls)

     General routines
     calbec       :      0.12s CPU      0.15s WALL (    1714 calls)
     fft          :      0.12s CPU      0.15s WALL (      54 calls)
     ffts         :      0.01s CPU      0.01s WALL (      15 calls)
     fftw         :      0.96s CPU      1.02s WALL (    2298 calls)
     interpolate  :      0.03s CPU      0.03s WALL (       8 calls)
 
     Parallel routines
 
     PWSCF        :     10.29s CPU     12.14s WALL

 
   This run was terminated on:  19: 0:12  19Feb2022            

=------------------------------------------------------------------------------=
   JOB DONE.
=------------------------------------------------------------------------------=
