
     Program PWSCF v.7.0 starts on 14Feb2022 at 13:22:19 

     This program is part of the open-source Quantum ESPRESSO suite
     for quantum simulation of materials; please cite
         "P. Giannozzi et al., J. Phys.:Condens. Matter 21 395502 (2009);
         "P. Giannozzi et al., J. Phys.:Condens. Matter 29 465901 (2017);
         "P. Giannozzi et al., J. Chem. Phys. 152 154105 (2020);
          URL http://www.quantum-espresso.org", 
     in publications or presentations arising from this work. More details at
     http://www.quantum-espresso.org/quote

     Parallel version (MPI), running on     1 processors

     MPI processes distributed on     1 nodes
     87390 MiB available memory on the printing compute node when the environment starts
 
     Waiting for input...
     Reading input from standard input
Warning: card &CELL ignored
Warning: card  CELL_DYNAMICS = 'BFGS', ignored
Warning: card  PRESS=0.1D0, ignored
Warning: card / ignored

     Current dimensions of program PWSCF are:
     Max number of different atomic species (ntypx) = 10
     Max number of k-points (npk) =  40000
     Max angular momentum in pseudopotentials (lmaxx) =  4

     Subspace diagonalization in iterative solution of the eigenvalue problem:
     a serial algorithm will be used

 
     G-vector sticks info
     --------------------
     sticks:   dense  smooth     PW     G-vecs:    dense   smooth      PW
     Sum        1663     559    163                45143     8657    1459
 
     Using Slab Decomposition
 


     bravais-lattice index     =            2
     lattice parameter (alat)  =       9.0000  a.u.
     unit-cell volume          =     182.2500 (a.u.)^3
     number of atoms/cell      =            2
     number of atomic types    =            2
     number of electrons       =         8.00
     number of Kohn-Sham states=            4
     kinetic-energy cutoff     =      50.0000  Ry
     charge density cutoff     =     600.0000  Ry
     scf convergence threshold =      1.0E-08
     mixing beta               =       0.7000
     number of iterations used =            8  plain     mixing
     Exchange-correlation= SLA  PZ   NOGX NOGC
                           (   1   1   0   0   0   0   0)

     celldm(1)=   9.000000  celldm(2)=   0.000000  celldm(3)=   0.000000
     celldm(4)=   0.000000  celldm(5)=   0.000000  celldm(6)=   0.000000

     crystal axes: (cart. coord. in units of alat)
               a(1) = (  -0.500000   0.000000   0.500000 )  
               a(2) = (   0.000000   0.500000   0.500000 )  
               a(3) = (  -0.500000   0.500000   0.000000 )  

     reciprocal axes: (cart. coord. in units 2 pi/alat)
               b(1) = ( -1.000000 -1.000000  1.000000 )  
               b(2) = (  1.000000  1.000000  1.000000 )  
               b(3) = ( -1.000000  1.000000 -1.000000 )  


     PseudoPot. # 1 for B  read from file:
     ./pseudo_dir/B_LDA.UPF
     MD5 check sum: a9970de764dbc07c3a3d9583c605c3b2
     Pseudo is Ultrasoft + core correction, Zval =  3.0
     Generated by new atomic code, or converted to UPF format
     Using radial grid of  781 points,  4 beta functions with: 
                l(1) =   0
                l(2) =   0
                l(3) =   1
                l(4) =   1
     Q(r) pseudized with  8 coefficients,  rinner =    1.100   1.100   1.100


     PseudoPot. # 2 for As read from file:
     ./pseudo_dir/As_LDA.UPF
     MD5 check sum: 6d2e8cbe4ed9d0db7c6ef7a361cc050d
     Pseudo is Ultrasoft + core correction, Zval =  5.0
     Generated by new atomic code, or converted to UPF format
     Using radial grid of  875 points,  6 beta functions with: 
                l(1) =   0
                l(2) =   0
                l(3) =   1
                l(4) =   1
                l(5) =   2
                l(6) =   2
     Q(r) pseudized with  8 coefficients,  rinner =    1.300   1.300   1.300
                                                       1.300   1.300

     atomic species   valence    mass     pseudopotential
        B              3.00    10.81100     B ( 1.00)
        As             5.00    74.92160     As( 1.00)

     24 Sym. Ops. (no inversion) found



   Cartesian axes

     site n.     atom                  positions (alat units)
         1           B   tau(   1) = (   0.0000000   0.0000000   0.0000000  )
         2           As  tau(   2) = (  -0.2500000   0.2500000   0.2500000  )

     number of k points=     8
                       cart. coord. in units 2pi/alat
        k(    1) = (   0.0000000   0.0000000   0.0000000), wk =   0.0312500
        k(    2) = (  -0.2500000   0.2500000  -0.2500000), wk =   0.2500000
        k(    3) = (   0.5000000  -0.5000000   0.5000000), wk =   0.1250000
        k(    4) = (   0.0000000   0.5000000   0.0000000), wk =   0.1875000
        k(    5) = (   0.7500000  -0.2500000   0.7500000), wk =   0.7500000
        k(    6) = (   0.5000000   0.0000000   0.5000000), wk =   0.3750000
        k(    7) = (   0.0000000  -1.0000000   0.0000000), wk =   0.0937500
        k(    8) = (  -0.5000000  -1.0000000   0.0000000), wk =   0.1875000

     Dense  grid:    45143 G-vectors     FFT dimensions: (  50,  50,  50)

     Smooth grid:     8657 G-vectors     FFT dimensions: (  30,  30,  30)

     Estimated max dynamical RAM per process >     171.87 MB

     Initial potential from superposition of free atoms

     starting charge       7.9996, renormalised to       8.0000
     Starting wfcs are    8 randomized atomic wfcs

     total cpu time spent up to now is        3.6 secs

     Self-consistent Calculation

     iteration #  1     ecut=    50.00 Ry     beta= 0.70
     CG style diagonalization
     ethr =  1.00E-02,  avg # of iterations =  2.7

     total cpu time spent up to now is        4.6 secs

     total energy              =     -46.13537228 Ry
     estimated scf accuracy    <       0.15458588 Ry

     iteration #  2     ecut=    50.00 Ry     beta= 0.70
     CG style diagonalization
     ethr =  1.93E-03,  avg # of iterations =  4.3

     total cpu time spent up to now is        5.7 secs

     total energy              =     -46.16969152 Ry
     estimated scf accuracy    <       0.04157342 Ry

     iteration #  3     ecut=    50.00 Ry     beta= 0.70
     CG style diagonalization
     ethr =  5.20E-04,  avg # of iterations =  4.1

     total cpu time spent up to now is        6.7 secs

     total energy              =     -46.17865769 Ry
     estimated scf accuracy    <       0.00044143 Ry

     iteration #  4     ecut=    50.00 Ry     beta= 0.70
     CG style diagonalization
     ethr =  5.52E-06,  avg # of iterations =  4.7

     total cpu time spent up to now is        7.8 secs

     total energy              =     -46.17900140 Ry
     estimated scf accuracy    <       0.00012556 Ry

     iteration #  5     ecut=    50.00 Ry     beta= 0.70
     CG style diagonalization
     ethr =  1.57E-06,  avg # of iterations =  4.1

     total cpu time spent up to now is        8.9 secs

     total energy              =     -46.17903153 Ry
     estimated scf accuracy    <       0.00000491 Ry

     iteration #  6     ecut=    50.00 Ry     beta= 0.70
     CG style diagonalization
     ethr =  6.14E-08,  avg # of iterations =  5.2

     total cpu time spent up to now is       10.0 secs

     total energy              =     -46.17903532 Ry
     estimated scf accuracy    <       0.00000058 Ry

     iteration #  7     ecut=    50.00 Ry     beta= 0.70
     CG style diagonalization
     ethr =  7.26E-09,  avg # of iterations =  4.9

     total cpu time spent up to now is       11.1 secs

     total energy              =     -46.17903560 Ry
     estimated scf accuracy    <       0.00000035 Ry

     iteration #  8     ecut=    50.00 Ry     beta= 0.70
     CG style diagonalization
     ethr =  4.32E-09,  avg # of iterations =  4.6

     total cpu time spent up to now is       12.2 secs

     total energy              =     -46.17903574 Ry
     estimated scf accuracy    <       0.00000017 Ry

     iteration #  9     ecut=    50.00 Ry     beta= 0.70
     CG style diagonalization
     ethr =  2.13E-09,  avg # of iterations =  3.9

     total cpu time spent up to now is       13.2 secs

     End of self-consistent calculation

          k = 0.0000 0.0000 0.0000 (  1067 PWs)   bands (ev):

    -6.9626   8.5299   8.5299   8.5299

          k =-0.2500 0.2500-0.2500 (  1083 PWs)   bands (ev):

    -5.9561   3.5612   7.3716   7.3716

          k = 0.5000-0.5000 0.5000 (  1068 PWs)   bands (ev):

    -4.0775  -0.3105   6.6994   6.6994

          k = 0.0000 0.5000 0.0000 (  1094 PWs)   bands (ev):

    -5.6107   4.4536   5.7949   5.7949

          k = 0.7500-0.2500 0.7500 (  1088 PWs)   bands (ev):

    -3.6772   0.8060   3.7448   5.3225

          k = 0.5000 0.0000 0.5000 (  1097 PWs)   bands (ev):

    -4.4325   1.8819   3.3729   6.5459

          k = 0.0000-1.0000 0.0000 (  1106 PWs)   bands (ev):

    -2.7901   0.0437   4.4114   4.4114

          k =-0.5000-1.0000 0.0000 (  1084 PWs)   bands (ev):

    -2.6224   0.5441   2.9498   3.2432

     highest occupied level (ev):     8.5299

!    total energy              =     -46.17903577 Ry
     estimated scf accuracy    <          2.6E-09 Ry

     The total energy is the sum of the following terms:
     one-electron contribution =       6.71582798 Ry
     hartree contribution      =       1.25779067 Ry
     xc contribution           =     -34.15894446 Ry
     ewald contribution        =     -19.99370996 Ry

     convergence has been achieved in   9 iterations

     Forces acting on atoms (cartesian axes, Ry/au):

     atom    1 type  1   force =     0.00000000    0.00000000    0.00000000
     atom    2 type  2   force =     0.00000000    0.00000000    0.00000000

     Total force =     0.000000     Total SCF correction =     0.000000


     Computing stress (Cartesian axis) and pressure

          total   stress  (Ry/bohr**3)                   (kbar)     P=       -7.74
  -0.00005260   0.00000000   0.00000000           -7.74        0.00        0.00
   0.00000000  -0.00005260   0.00000000            0.00       -7.74        0.00
   0.00000000  -0.00000000  -0.00005260            0.00       -0.00       -7.74


     Writing all to output data dir ./BAs_50.save/
 
     init_run     :      2.14s CPU      2.38s WALL (       1 calls)
     electrons    :      8.64s CPU      9.61s WALL (       1 calls)
     forces       :      0.38s CPU      0.42s WALL (       1 calls)
     stress       :      3.20s CPU      3.37s WALL (       1 calls)

     Called by init_run:
     wfcinit      :      0.15s CPU      0.20s WALL (       1 calls)
     potinit      :      0.05s CPU      0.07s WALL (       1 calls)
     hinit0       :      1.61s CPU      1.69s WALL (       1 calls)

     Called by electrons:
     c_bands      :      2.79s CPU      3.07s WALL (       9 calls)
     sum_band     :      3.22s CPU      3.53s WALL (       9 calls)
     v_of_rho     :      0.33s CPU      0.34s WALL (      10 calls)
     newd         :      2.40s CPU      2.74s WALL (      10 calls)
     mix_rho      :      0.09s CPU      0.10s WALL (       9 calls)

     Called by c_bands:
     init_us_2    :      0.24s CPU      0.25s WALL (     168 calls)
     init_us_2:cp :      0.23s CPU      0.25s WALL (     168 calls)
     ccgdiagg     :      2.18s CPU      2.32s WALL (      72 calls)
     wfcrot       :      0.61s CPU      0.67s WALL (      72 calls)

     Called by *cgdiagg:
     h_psi        :      2.36s CPU      2.49s WALL (    1047 calls)
     s_psi        :      0.13s CPU      0.14s WALL (    2022 calls)

     Called by h_psi:
     h_psi:calbec :      0.14s CPU      0.16s WALL (    1047 calls)
     vloc_psi     :      2.07s CPU      2.17s WALL (    1047 calls)
     add_vuspsi   :      0.09s CPU      0.10s WALL (    1047 calls)
     hs_1psi      :      1.93s CPU      2.03s WALL (     975 calls)
     s_1psi       :      0.17s CPU      0.18s WALL (     975 calls)

     General routines
     calbec       :      0.20s CPU      0.23s WALL (    2134 calls)
     fft          :      0.20s CPU      0.23s WALL (      66 calls)
     ffts         :      0.01s CPU      0.02s WALL (      19 calls)
     fftw         :      1.99s CPU      2.08s WALL (    2878 calls)
     interpolate  :      0.05s CPU      0.05s WALL (      10 calls)
 
     Parallel routines
 
     PWSCF        :     15.15s CPU     17.43s WALL

 
   This run was terminated on:  13:22:36  14Feb2022            

=------------------------------------------------------------------------------=
   JOB DONE.
=------------------------------------------------------------------------------=
