
     Program PWSCF v.7.0 starts on 14Feb2022 at 13:22:19 

     This program is part of the open-source Quantum ESPRESSO suite
     for quantum simulation of materials; please cite
         "P. Giannozzi et al., J. Phys.:Condens. Matter 21 395502 (2009);
         "P. Giannozzi et al., J. Phys.:Condens. Matter 29 465901 (2017);
         "P. Giannozzi et al., J. Chem. Phys. 152 154105 (2020);
          URL http://www.quantum-espresso.org", 
     in publications or presentations arising from this work. More details at
     http://www.quantum-espresso.org/quote

     Parallel version (MPI), running on     1 processors

     MPI processes distributed on     1 nodes
     92867 MiB available memory on the printing compute node when the environment starts
 
     Waiting for input...
     Reading input from standard input
Warning: card &CELL ignored
Warning: card  CELL_DYNAMICS = 'BFGS', ignored
Warning: card  PRESS=0.1D0, ignored
Warning: card / ignored

     Current dimensions of program PWSCF are:
     Max number of different atomic species (ntypx) = 10
     Max number of k-points (npk) =  40000
     Max angular momentum in pseudopotentials (lmaxx) =  4

     Subspace diagonalization in iterative solution of the eigenvalue problem:
     a serial algorithm will be used

 
     G-vector sticks info
     --------------------
     sticks:   dense  smooth     PW     G-vecs:    dense   smooth      PW
     Sum        2677     889    253                91353    17573    2741
 
     Using Slab Decomposition
 


     bravais-lattice index     =            2
     lattice parameter (alat)  =       9.0000  a.u.
     unit-cell volume          =     182.2500 (a.u.)^3
     number of atoms/cell      =            2
     number of atomic types    =            2
     number of electrons       =         8.00
     number of Kohn-Sham states=            4
     kinetic-energy cutoff     =      80.0000  Ry
     charge density cutoff     =     960.0000  Ry
     scf convergence threshold =      1.0E-08
     mixing beta               =       0.7000
     number of iterations used =            8  plain     mixing
     Exchange-correlation= SLA  PZ   NOGX NOGC
                           (   1   1   0   0   0   0   0)

     celldm(1)=   9.000000  celldm(2)=   0.000000  celldm(3)=   0.000000
     celldm(4)=   0.000000  celldm(5)=   0.000000  celldm(6)=   0.000000

     crystal axes: (cart. coord. in units of alat)
               a(1) = (  -0.500000   0.000000   0.500000 )  
               a(2) = (   0.000000   0.500000   0.500000 )  
               a(3) = (  -0.500000   0.500000   0.000000 )  

     reciprocal axes: (cart. coord. in units 2 pi/alat)
               b(1) = ( -1.000000 -1.000000  1.000000 )  
               b(2) = (  1.000000  1.000000  1.000000 )  
               b(3) = ( -1.000000  1.000000 -1.000000 )  


     PseudoPot. # 1 for B  read from file:
     ./pseudo_dir/B_LDA.UPF
     MD5 check sum: a9970de764dbc07c3a3d9583c605c3b2
     Pseudo is Ultrasoft + core correction, Zval =  3.0
     Generated by new atomic code, or converted to UPF format
     Using radial grid of  781 points,  4 beta functions with: 
                l(1) =   0
                l(2) =   0
                l(3) =   1
                l(4) =   1
     Q(r) pseudized with  8 coefficients,  rinner =    1.100   1.100   1.100


     PseudoPot. # 2 for As read from file:
     ./pseudo_dir/As_LDA.UPF
     MD5 check sum: 6d2e8cbe4ed9d0db7c6ef7a361cc050d
     Pseudo is Ultrasoft + core correction, Zval =  5.0
     Generated by new atomic code, or converted to UPF format
     Using radial grid of  875 points,  6 beta functions with: 
                l(1) =   0
                l(2) =   0
                l(3) =   1
                l(4) =   1
                l(5) =   2
                l(6) =   2
     Q(r) pseudized with  8 coefficients,  rinner =    1.300   1.300   1.300
                                                       1.300   1.300

     atomic species   valence    mass     pseudopotential
        B              3.00    10.81100     B ( 1.00)
        As             5.00    74.92160     As( 1.00)

     24 Sym. Ops. (no inversion) found



   Cartesian axes

     site n.     atom                  positions (alat units)
         1           B   tau(   1) = (   0.0000000   0.0000000   0.0000000  )
         2           As  tau(   2) = (  -0.2500000   0.2500000   0.2500000  )

     number of k points=     8
                       cart. coord. in units 2pi/alat
        k(    1) = (   0.0000000   0.0000000   0.0000000), wk =   0.0312500
        k(    2) = (  -0.2500000   0.2500000  -0.2500000), wk =   0.2500000
        k(    3) = (   0.5000000  -0.5000000   0.5000000), wk =   0.1250000
        k(    4) = (   0.0000000   0.5000000   0.0000000), wk =   0.1875000
        k(    5) = (   0.7500000  -0.2500000   0.7500000), wk =   0.7500000
        k(    6) = (   0.5000000   0.0000000   0.5000000), wk =   0.3750000
        k(    7) = (   0.0000000  -1.0000000   0.0000000), wk =   0.0937500
        k(    8) = (  -0.5000000  -1.0000000   0.0000000), wk =   0.1875000

     Dense  grid:    91353 G-vectors     FFT dimensions: (  64,  64,  64)

     Smooth grid:    17573 G-vectors     FFT dimensions: (  40,  40,  40)

     Estimated max dynamical RAM per process >     345.44 MB

     Initial potential from superposition of free atoms

     starting charge       7.9996, renormalised to       8.0000
     Starting wfcs are    8 randomized atomic wfcs

     total cpu time spent up to now is        4.7 secs

     Self-consistent Calculation

     iteration #  1     ecut=    80.00 Ry     beta= 0.70
     CG style diagonalization
     ethr =  1.00E-02,  avg # of iterations =  2.6

     total cpu time spent up to now is        6.6 secs

     total energy              =     -46.13631807 Ry
     estimated scf accuracy    <       0.15315177 Ry

     iteration #  2     ecut=    80.00 Ry     beta= 0.70
     CG style diagonalization
     ethr =  1.91E-03,  avg # of iterations =  4.3

     total cpu time spent up to now is        8.7 secs

     total energy              =     -46.17006294 Ry
     estimated scf accuracy    <       0.04168942 Ry

     iteration #  3     ecut=    80.00 Ry     beta= 0.70
     CG style diagonalization
     ethr =  5.21E-04,  avg # of iterations =  4.1

     total cpu time spent up to now is       10.8 secs

     total energy              =     -46.17922974 Ry
     estimated scf accuracy    <       0.00046688 Ry

     iteration #  4     ecut=    80.00 Ry     beta= 0.70
     CG style diagonalization
     ethr =  5.84E-06,  avg # of iterations =  4.8

     total cpu time spent up to now is       12.9 secs

     total energy              =     -46.17958802 Ry
     estimated scf accuracy    <       0.00013151 Ry

     iteration #  5     ecut=    80.00 Ry     beta= 0.70
     CG style diagonalization
     ethr =  1.64E-06,  avg # of iterations =  4.2

     total cpu time spent up to now is       15.0 secs

     total energy              =     -46.17962620 Ry
     estimated scf accuracy    <       0.00001052 Ry

     iteration #  6     ecut=    80.00 Ry     beta= 0.70
     CG style diagonalization
     ethr =  1.31E-07,  avg # of iterations =  5.4

     total cpu time spent up to now is       17.2 secs

     total energy              =     -46.17963685 Ry
     estimated scf accuracy    <       0.00000181 Ry

     iteration #  7     ecut=    80.00 Ry     beta= 0.70
     CG style diagonalization
     ethr =  2.26E-08,  avg # of iterations =  3.7

     total cpu time spent up to now is       19.2 secs

     total energy              =     -46.17963559 Ry
     estimated scf accuracy    <       0.00000204 Ry

     iteration #  8     ecut=    80.00 Ry     beta= 0.70
     CG style diagonalization
     ethr =  2.26E-08,  avg # of iterations =  4.8

     total cpu time spent up to now is       21.4 secs

     total energy              =     -46.17963656 Ry
     estimated scf accuracy    <       0.00000444 Ry

     iteration #  9     ecut=    80.00 Ry     beta= 0.70
     CG style diagonalization
     ethr =  2.26E-08,  avg # of iterations =  3.8

     total cpu time spent up to now is       23.4 secs

     total energy              =     -46.17963674 Ry
     estimated scf accuracy    <       0.00000100 Ry

     iteration # 10     ecut=    80.00 Ry     beta= 0.70
     CG style diagonalization
     ethr =  1.25E-08,  avg # of iterations =  3.0

     total cpu time spent up to now is       25.3 secs

     total energy              =     -46.17963660 Ry
     estimated scf accuracy    <       0.00000082 Ry

     iteration # 11     ecut=    80.00 Ry     beta= 0.70
     CG style diagonalization
     ethr =  1.03E-08,  avg # of iterations =  3.0

     total cpu time spent up to now is       27.2 secs

     total energy              =     -46.17963656 Ry
     estimated scf accuracy    <       0.00000043 Ry

     iteration # 12     ecut=    80.00 Ry     beta= 0.70
     CG style diagonalization
     ethr =  5.41E-09,  avg # of iterations =  3.1

     total cpu time spent up to now is       29.1 secs

     total energy              =     -46.17963647 Ry
     estimated scf accuracy    <       0.00000027 Ry

     iteration # 13     ecut=    80.00 Ry     beta= 0.70
     CG style diagonalization
     ethr =  3.34E-09,  avg # of iterations =  4.0

     total cpu time spent up to now is       31.1 secs

     End of self-consistent calculation

          k = 0.0000 0.0000 0.0000 (  2229 PWs)   bands (ev):

    -6.9636   8.5278   8.5278   8.5278

          k =-0.2500 0.2500-0.2500 (  2190 PWs)   bands (ev):

    -5.9572   3.5595   7.3697   7.3697

          k = 0.5000-0.5000 0.5000 (  2186 PWs)   bands (ev):

    -4.0791  -0.3115   6.6975   6.6975

          k = 0.0000 0.5000 0.0000 (  2181 PWs)   bands (ev):

    -5.6119   4.4518   5.7932   5.7932

          k = 0.7500-0.2500 0.7500 (  2200 PWs)   bands (ev):

    -3.6787   0.8047   3.7432   5.3208

          k = 0.5000 0.0000 0.5000 (  2209 PWs)   bands (ev):

    -4.4339   1.8804   3.3715   6.5440

          k = 0.0000-1.0000 0.0000 (  2200 PWs)   bands (ev):

    -2.7919   0.0427   4.4099   4.4099

          k =-0.5000-1.0000 0.0000 (  2208 PWs)   bands (ev):

    -2.6243   0.5430   2.9484   3.2418

     highest occupied level (ev):     8.5278

!    total energy              =     -46.17963653 Ry
     estimated scf accuracy    <          4.3E-09 Ry

     The total energy is the sum of the following terms:
     one-electron contribution =       6.71221312 Ry
     hartree contribution      =       1.25754797 Ry
     xc contribution           =     -34.15568766 Ry
     ewald contribution        =     -19.99370996 Ry

     convergence has been achieved in  13 iterations

     Forces acting on atoms (cartesian axes, Ry/au):

     atom    1 type  1   force =     0.00000000    0.00000000   -0.00000000
     atom    2 type  2   force =    -0.00000000    0.00000000   -0.00000000

     Total force =     0.000000     Total SCF correction =     0.000000


     Computing stress (Cartesian axis) and pressure

          total   stress  (Ry/bohr**3)                   (kbar)     P=       -7.65
  -0.00005200   0.00000000  -0.00000000           -7.65        0.00       -0.00
   0.00000000  -0.00005200   0.00000000            0.00       -7.65        0.00
   0.00000000   0.00000000  -0.00005200            0.00        0.00       -7.65


     Writing all to output data dir ./BAs_80.save/
 
     init_run     :      3.05s CPU      3.35s WALL (       1 calls)
     electrons    :     24.20s CPU     26.46s WALL (       1 calls)
     forces       :      0.74s CPU      0.82s WALL (       1 calls)
     stress       :      6.45s CPU      6.68s WALL (       1 calls)

     Called by init_run:
     wfcinit      :      0.29s CPU      0.35s WALL (       1 calls)
     potinit      :      0.10s CPU      0.14s WALL (       1 calls)
     hinit0       :      1.98s CPU      2.07s WALL (       1 calls)

     Called by electrons:
     c_bands      :      7.32s CPU      7.87s WALL (      13 calls)
     sum_band     :      9.34s CPU     10.17s WALL (      13 calls)
     v_of_rho     :      0.95s CPU      0.97s WALL (      14 calls)
     newd         :      6.72s CPU      7.56s WALL (      14 calls)
     mix_rho      :      0.25s CPU      0.26s WALL (      13 calls)

     Called by c_bands:
     init_us_2    :      0.66s CPU      0.68s WALL (     232 calls)
     init_us_2:cp :      0.65s CPU      0.68s WALL (     232 calls)
     ccgdiagg     :      5.53s CPU      5.87s WALL (     104 calls)
     wfcrot       :      1.66s CPU      1.78s WALL (     104 calls)

     Called by *cgdiagg:
     h_psi        :      6.07s CPU      6.34s WALL (    1350 calls)
     s_psi        :      0.47s CPU      0.55s WALL (    2596 calls)

     Called by h_psi:
     h_psi:calbec :      0.32s CPU      0.36s WALL (    1350 calls)
     vloc_psi     :      5.36s CPU      5.57s WALL (    1350 calls)
     add_vuspsi   :      0.28s CPU      0.32s WALL (    1350 calls)
     hs_1psi      :      4.84s CPU      5.07s WALL (    1246 calls)
     s_1psi       :      0.50s CPU      0.56s WALL (    1246 calls)

     General routines
     calbec       :      0.53s CPU      0.62s WALL (    2740 calls)
     fft          :      0.49s CPU      0.51s WALL (      90 calls)
     ffts         :      0.04s CPU      0.04s WALL (      27 calls)
     fftw         :      5.03s CPU      5.21s WALL (    3804 calls)
     interpolate  :      0.11s CPU      0.13s WALL (      14 calls)
 
     Parallel routines
 
     PWSCF        :     35.24s CPU     39.16s WALL

 
   This run was terminated on:  13:22:58  14Feb2022            

=------------------------------------------------------------------------------=
   JOB DONE.
=------------------------------------------------------------------------------=
