
     Program PWSCF v.7.0 starts on 14Feb2022 at 16:44:53 

     This program is part of the open-source Quantum ESPRESSO suite
     for quantum simulation of materials; please cite
         "P. Giannozzi et al., J. Phys.:Condens. Matter 21 395502 (2009);
         "P. Giannozzi et al., J. Phys.:Condens. Matter 29 465901 (2017);
         "P. Giannozzi et al., J. Chem. Phys. 152 154105 (2020);
          URL http://www.quantum-espresso.org", 
     in publications or presentations arising from this work. More details at
     http://www.quantum-espresso.org/quote

     Parallel version (MPI), running on     1 processors

     MPI processes distributed on     1 nodes
     89495 MiB available memory on the printing compute node when the environment starts
 
     Waiting for input...
     Reading input from standard input
Warning: card &CELL ignored
Warning: card  CELL_DYNAMICS = 'BFGS', ignored
Warning: card  PRESS=0.1D0, ignored
Warning: card / ignored

     Current dimensions of program PWSCF are:
     Max number of different atomic species (ntypx) = 10
     Max number of k-points (npk) =  40000
     Max angular momentum in pseudopotentials (lmaxx) =  4

     Subspace diagonalization in iterative solution of the eigenvalue problem:
     a serial algorithm will be used

 
     G-vector sticks info
     --------------------
     sticks:   dense  smooth     PW     G-vecs:    dense   smooth      PW
     Sum        3679    1237    361               147877    28475    4477
 
     Using Slab Decomposition
 


     bravais-lattice index     =            2
     lattice parameter (alat)  =       9.0000  a.u.
     unit-cell volume          =     182.2500 (a.u.)^3
     number of atoms/cell      =            2
     number of atomic types    =            2
     number of electrons       =         8.00
     number of Kohn-Sham states=            4
     kinetic-energy cutoff     =     110.0000  Ry
     charge density cutoff     =    1320.0000  Ry
     scf convergence threshold =      1.0E-08
     mixing beta               =       0.7000
     number of iterations used =            8  plain     mixing
     Exchange-correlation= SLA  PZ   NOGX NOGC
                           (   1   1   0   0   0   0   0)

     celldm(1)=   9.000000  celldm(2)=   0.000000  celldm(3)=   0.000000
     celldm(4)=   0.000000  celldm(5)=   0.000000  celldm(6)=   0.000000

     crystal axes: (cart. coord. in units of alat)
               a(1) = (  -0.500000   0.000000   0.500000 )  
               a(2) = (   0.000000   0.500000   0.500000 )  
               a(3) = (  -0.500000   0.500000   0.000000 )  

     reciprocal axes: (cart. coord. in units 2 pi/alat)
               b(1) = ( -1.000000 -1.000000  1.000000 )  
               b(2) = (  1.000000  1.000000  1.000000 )  
               b(3) = ( -1.000000  1.000000 -1.000000 )  


     PseudoPot. # 1 for B  read from file:
     ./pseudo_dir/B_LDA.UPF
     MD5 check sum: a9970de764dbc07c3a3d9583c605c3b2
     Pseudo is Ultrasoft + core correction, Zval =  3.0
     Generated by new atomic code, or converted to UPF format
     Using radial grid of  781 points,  4 beta functions with: 
                l(1) =   0
                l(2) =   0
                l(3) =   1
                l(4) =   1
     Q(r) pseudized with  8 coefficients,  rinner =    1.100   1.100   1.100


     PseudoPot. # 2 for As read from file:
     ./pseudo_dir/As_LDA.UPF
     MD5 check sum: 6d2e8cbe4ed9d0db7c6ef7a361cc050d
     Pseudo is Ultrasoft + core correction, Zval =  5.0
     Generated by new atomic code, or converted to UPF format
     Using radial grid of  875 points,  6 beta functions with: 
                l(1) =   0
                l(2) =   0
                l(3) =   1
                l(4) =   1
                l(5) =   2
                l(6) =   2
     Q(r) pseudized with  8 coefficients,  rinner =    1.300   1.300   1.300
                                                       1.300   1.300

     atomic species   valence    mass     pseudopotential
        B              3.00    10.81100     B ( 1.00)
        As             5.00    74.92160     As( 1.00)

     24 Sym. Ops. (no inversion) found



   Cartesian axes

     site n.     atom                  positions (alat units)
         1           B   tau(   1) = (   0.0000000   0.0000000   0.0000000  )
         2           As  tau(   2) = (  -0.2500000   0.2500000   0.2500000  )

     number of k points=     8
                       cart. coord. in units 2pi/alat
        k(    1) = (   0.0000000   0.0000000   0.0000000), wk =   0.0312500
        k(    2) = (  -0.2500000   0.2500000  -0.2500000), wk =   0.2500000
        k(    3) = (   0.5000000  -0.5000000   0.5000000), wk =   0.1250000
        k(    4) = (   0.0000000   0.5000000   0.0000000), wk =   0.1875000
        k(    5) = (   0.7500000  -0.2500000   0.7500000), wk =   0.7500000
        k(    6) = (   0.5000000   0.0000000   0.5000000), wk =   0.3750000
        k(    7) = (   0.0000000  -1.0000000   0.0000000), wk =   0.0937500
        k(    8) = (  -0.5000000  -1.0000000   0.0000000), wk =   0.1875000

     Dense  grid:   147877 G-vectors     FFT dimensions: (  75,  75,  75)

     Smooth grid:    28475 G-vectors     FFT dimensions: (  45,  45,  45)

     Estimated max dynamical RAM per process >     556.79 MB

     Initial potential from superposition of free atoms

     starting charge       7.9996, renormalised to       8.0000
     Starting wfcs are    8 randomized atomic wfcs

     total cpu time spent up to now is       10.1 secs

     Self-consistent Calculation

     iteration #  1     ecut=   110.00 Ry     beta= 0.70
     CG style diagonalization
     ethr =  1.00E-02,  avg # of iterations =  2.6

     total cpu time spent up to now is       13.2 secs

     total energy              =     -46.13656418 Ry
     estimated scf accuracy    <       0.15272368 Ry

     iteration #  2     ecut=   110.00 Ry     beta= 0.70
     CG style diagonalization
     ethr =  1.91E-03,  avg # of iterations =  4.3

     total cpu time spent up to now is       16.7 secs

     total energy              =     -46.17033795 Ry
     estimated scf accuracy    <       0.04030945 Ry

     iteration #  3     ecut=   110.00 Ry     beta= 0.70
     CG style diagonalization
     ethr =  5.04E-04,  avg # of iterations =  4.2

     total cpu time spent up to now is       20.1 secs

     total energy              =     -46.17930232 Ry
     estimated scf accuracy    <       0.00046535 Ry

     iteration #  4     ecut=   110.00 Ry     beta= 0.70
     CG style diagonalization
     ethr =  5.82E-06,  avg # of iterations =  4.8

     total cpu time spent up to now is       23.6 secs

     total energy              =     -46.17965313 Ry
     estimated scf accuracy    <       0.00012225 Ry

     iteration #  5     ecut=   110.00 Ry     beta= 0.70
     CG style diagonalization
     ethr =  1.53E-06,  avg # of iterations =  4.4

     total cpu time spent up to now is       27.0 secs

     total energy              =     -46.17969198 Ry
     estimated scf accuracy    <       0.00001106 Ry

     iteration #  6     ecut=   110.00 Ry     beta= 0.70
     CG style diagonalization
     ethr =  1.38E-07,  avg # of iterations =  5.4

     total cpu time spent up to now is       30.7 secs

     total energy              =     -46.17970178 Ry
     estimated scf accuracy    <       0.00000127 Ry

     iteration #  7     ecut=   110.00 Ry     beta= 0.70
     CG style diagonalization
     ethr =  1.59E-08,  avg # of iterations =  4.8

     total cpu time spent up to now is       34.2 secs

     total energy              =     -46.17970256 Ry
     estimated scf accuracy    <       0.00000011 Ry

     iteration #  8     ecut=   110.00 Ry     beta= 0.70
     CG style diagonalization
     ethr =  1.40E-09,  avg # of iterations =  5.4

     total cpu time spent up to now is       38.0 secs

     total energy              =     -46.17970235 Ry
     estimated scf accuracy    <       0.00000109 Ry

     iteration #  9     ecut=   110.00 Ry     beta= 0.70
     CG style diagonalization
     ethr =  1.40E-09,  avg # of iterations =  4.7

     total cpu time spent up to now is       41.5 secs

     total energy              =     -46.17970249 Ry
     estimated scf accuracy    <       0.00000003 Ry

     iteration # 10     ecut=   110.00 Ry     beta= 0.70
     CG style diagonalization
     ethr =  3.93E-10,  avg # of iterations =  3.1

     total cpu time spent up to now is       44.6 secs

     total energy              =     -46.17970248 Ry
     estimated scf accuracy    <       0.00000002 Ry

     iteration # 11     ecut=   110.00 Ry     beta= 0.70
     CG style diagonalization
     ethr =  2.07E-10,  avg # of iterations =  4.0

     total cpu time spent up to now is       47.9 secs

     End of self-consistent calculation

          k = 0.0000 0.0000 0.0000 (  3527 PWs)   bands (ev):

    -6.9637   8.5275   8.5275   8.5275

          k =-0.2500 0.2500-0.2500 (  3584 PWs)   bands (ev):

    -5.9574   3.5593   7.3694   7.3694

          k = 0.5000-0.5000 0.5000 (  3582 PWs)   bands (ev):

    -4.0792  -0.3117   6.6972   6.6972

          k = 0.0000 0.5000 0.0000 (  3543 PWs)   bands (ev):

    -5.6120   4.4515   5.7930   5.7930

          k = 0.7500-0.2500 0.7500 (  3560 PWs)   bands (ev):

    -3.6789   0.8045   3.7430   5.3206

          k = 0.5000 0.0000 0.5000 (  3555 PWs)   bands (ev):

    -4.4340   1.8801   3.3713   6.5437

          k = 0.0000-1.0000 0.0000 (  3540 PWs)   bands (ev):

    -2.7920   0.0424   4.4096   4.4096

          k =-0.5000-1.0000 0.0000 (  3552 PWs)   bands (ev):

    -2.6244   0.5427   2.9482   3.2416

     highest occupied level (ev):     8.5275

!    total energy              =     -46.17970248 Ry
     estimated scf accuracy    <          6.9E-10 Ry

     The total energy is the sum of the following terms:
     one-electron contribution =       6.71188571 Ry
     hartree contribution      =       1.25757208 Ry
     xc contribution           =     -34.15545032 Ry
     ewald contribution        =     -19.99370996 Ry

     convergence has been achieved in  11 iterations

     Forces acting on atoms (cartesian axes, Ry/au):

     atom    1 type  1   force =     0.00000000    0.00000000    0.00000000
     atom    2 type  2   force =     0.00000000    0.00000000    0.00000000

     Total force =     0.000000     Total SCF correction =     0.000000


     Computing stress (Cartesian axis) and pressure

          total   stress  (Ry/bohr**3)                   (kbar)     P=       -7.73
  -0.00005257   0.00000000   0.00000000           -7.73        0.00        0.00
  -0.00000000  -0.00005257   0.00000000           -0.00       -7.73        0.00
   0.00000000   0.00000000  -0.00005257            0.00        0.00       -7.73


     Writing all to output data dir ./BAs_110.save/
 
     init_run     :      4.09s CPU      4.49s WALL (       1 calls)
     electrons    :     35.09s CPU     37.86s WALL (       1 calls)
     forces       :      1.24s CPU      1.34s WALL (       1 calls)
     stress       :     10.53s CPU     10.86s WALL (       1 calls)

     Called by init_run:
     wfcinit      :      0.50s CPU      0.57s WALL (       1 calls)
     potinit      :      0.16s CPU      0.20s WALL (       1 calls)
     hinit0       :      2.28s CPU      2.39s WALL (       1 calls)

     Called by electrons:
     c_bands      :     11.55s CPU     12.03s WALL (      11 calls)
     sum_band     :     13.00s CPU     14.10s WALL (      11 calls)
     v_of_rho     :      1.32s CPU      1.36s WALL (      12 calls)
     newd         :      9.47s CPU     10.64s WALL (      12 calls)
     mix_rho      :      0.38s CPU      0.39s WALL (      11 calls)

     Called by c_bands:
     init_us_2    :      0.92s CPU      0.95s WALL (     200 calls)
     init_us_2:cp :      0.91s CPU      0.94s WALL (     200 calls)
     ccgdiagg     :      9.00s CPU      9.39s WALL (      88 calls)
     wfcrot       :      2.52s CPU      2.63s WALL (      88 calls)

     Called by *cgdiagg:
     h_psi        :     10.08s CPU     10.35s WALL (    1288 calls)
     s_psi        :      0.62s CPU      0.73s WALL (    2488 calls)

     Called by h_psi:
     h_psi:calbec :      0.39s CPU      0.43s WALL (    1288 calls)
     vloc_psi     :      9.22s CPU      9.42s WALL (    1288 calls)
     add_vuspsi   :      0.36s CPU      0.41s WALL (    1288 calls)
     hs_1psi      :      8.09s CPU      8.34s WALL (    1200 calls)
     s_1psi       :      0.66s CPU      0.73s WALL (    1200 calls)

     General routines
     calbec       :      0.69s CPU      0.79s WALL (    2616 calls)
     fft          :      0.84s CPU      0.87s WALL (      78 calls)
     ffts         :      0.06s CPU      0.07s WALL (      23 calls)
     fftw         :      8.84s CPU      8.99s WALL (    3520 calls)
     interpolate  :      0.19s CPU      0.20s WALL (      12 calls)
 
     Parallel routines
 
     PWSCF        :     51.77s CPU   1m 0.63s WALL

 
   This run was terminated on:  16:45:54  14Feb2022            

=------------------------------------------------------------------------------=
   JOB DONE.
=------------------------------------------------------------------------------=
