
     Program PWSCF v.7.0 starts on 19Feb2022 at 18:27:31 

     This program is part of the open-source Quantum ESPRESSO suite
     for quantum simulation of materials; please cite
         "P. Giannozzi et al., J. Phys.:Condens. Matter 21 395502 (2009);
         "P. Giannozzi et al., J. Phys.:Condens. Matter 29 465901 (2017);
         "P. Giannozzi et al., J. Chem. Phys. 152 154105 (2020);
          URL http://www.quantum-espresso.org", 
     in publications or presentations arising from this work. More details at
     http://www.quantum-espresso.org/quote

     Parallel version (MPI), running on     1 processors

     MPI processes distributed on     1 nodes
     88514 MiB available memory on the printing compute node when the environment starts
 
     Waiting for input...
     Reading input from standard input
Warning: card &CELL ignored
Warning: card  CELL_DYNAMICS = 'BFGS', ignored
Warning: card  PRESS=0.1D0, ignored
Warning: card / ignored

     Current dimensions of program PWSCF are:
     Max number of different atomic species (ntypx) = 10
     Max number of k-points (npk) =  40000
     Max angular momentum in pseudopotentials (lmaxx) =  4

     Subspace diagonalization in iterative solution of the eigenvalue problem:
     a serial algorithm will be used

 
     G-vector sticks info
     --------------------
     sticks:   dense  smooth     PW     G-vecs:    dense   smooth      PW
     Sum        1345     439    139                32455     6231    1067
 
     Using Slab Decomposition
 


     bravais-lattice index     =            2
     lattice parameter (alat)  =       9.0000  a.u.
     unit-cell volume          =     182.2500 (a.u.)^3
     number of atoms/cell      =            2
     number of atomic types    =            2
     number of electrons       =         8.00
     number of Kohn-Sham states=            4
     kinetic-energy cutoff     =      40.0000  Ry
     charge density cutoff     =     480.0000  Ry
     scf convergence threshold =      1.0E-08
     mixing beta               =       0.7000
     number of iterations used =            8  plain     mixing
     Exchange-correlation= SLA  PZ   NOGX NOGC
                           (   1   1   0   0   0   0   0)

     celldm(1)=   9.000000  celldm(2)=   0.000000  celldm(3)=   0.000000
     celldm(4)=   0.000000  celldm(5)=   0.000000  celldm(6)=   0.000000

     crystal axes: (cart. coord. in units of alat)
               a(1) = (  -0.500000   0.000000   0.500000 )  
               a(2) = (   0.000000   0.500000   0.500000 )  
               a(3) = (  -0.500000   0.500000   0.000000 )  

     reciprocal axes: (cart. coord. in units 2 pi/alat)
               b(1) = ( -1.000000 -1.000000  1.000000 )  
               b(2) = (  1.000000  1.000000  1.000000 )  
               b(3) = ( -1.000000  1.000000 -1.000000 )  


     PseudoPot. # 1 for B  read from file:
     ./pseudo_dir/B_LDA.UPF
     MD5 check sum: a9970de764dbc07c3a3d9583c605c3b2
     Pseudo is Ultrasoft + core correction, Zval =  3.0
     Generated by new atomic code, or converted to UPF format
     Using radial grid of  781 points,  4 beta functions with: 
                l(1) =   0
                l(2) =   0
                l(3) =   1
                l(4) =   1
     Q(r) pseudized with  8 coefficients,  rinner =    1.100   1.100   1.100


     PseudoPot. # 2 for As read from file:
     ./pseudo_dir/As_LDA.UPF
     MD5 check sum: 6d2e8cbe4ed9d0db7c6ef7a361cc050d
     Pseudo is Ultrasoft + core correction, Zval =  5.0
     Generated by new atomic code, or converted to UPF format
     Using radial grid of  875 points,  6 beta functions with: 
                l(1) =   0
                l(2) =   0
                l(3) =   1
                l(4) =   1
                l(5) =   2
                l(6) =   2
     Q(r) pseudized with  8 coefficients,  rinner =    1.300   1.300   1.300
                                                       1.300   1.300

     atomic species   valence    mass     pseudopotential
        B              3.00    10.81100     B ( 1.00)
        As             5.00    74.92160     As( 1.00)

      2 Sym. Ops. (no inversion) found



   Cartesian axes

     site n.     atom                  positions (alat units)
         1           B   tau(   1) = (   0.0000000   0.0000000   0.0000000  )
         2           As  tau(   2) = (  -0.2750000   0.2750000   0.2500000  )

     number of k points=    10
                       cart. coord. in units 2pi/alat
        k(    1) = (   0.0000000   0.0000000   0.0000000), wk =   0.0740741
        k(    2) = (  -0.3333333   0.3333333  -0.3333333), wk =   0.1481481
        k(    3) = (   0.0000000   0.6666667   0.0000000), wk =   0.2962963
        k(    4) = (   0.6666667  -0.0000000   0.6666667), wk =   0.2962963
        k(    5) = (   0.3333333   0.3333333   0.3333333), wk =   0.2962963
        k(    6) = (  -0.3333333   0.3333333   0.3333333), wk =   0.1481481
        k(    7) = (   0.0000000   0.0000000   0.6666667), wk =   0.1481481
        k(    8) = (   0.6666667   0.0000000  -0.6666667), wk =   0.2962963
        k(    9) = (  -0.6666667   0.6666667   0.0000000), wk =   0.1481481
        k(   10) = (  -0.6666667  -0.6666667   0.0000000), wk =   0.1481481

     Dense  grid:    32455 G-vectors     FFT dimensions: (  45,  45,  45)

     Smooth grid:     6231 G-vectors     FFT dimensions: (  25,  25,  25)

     Estimated max dynamical RAM per process >     124.43 MB

     Initial potential from superposition of free atoms

     starting charge       7.9996, renormalised to       8.0000
     Starting wfcs are    8 randomized atomic wfcs

     total cpu time spent up to now is        3.3 secs

     Self-consistent Calculation

     iteration #  1     ecut=    40.00 Ry     beta= 0.70
     CG style diagonalization
     ethr =  1.00E-02,  avg # of iterations =  2.6

     total cpu time spent up to now is        4.0 secs

     total energy              =     -46.07425800 Ry
     estimated scf accuracy    <       0.17560885 Ry

     iteration #  2     ecut=    40.00 Ry     beta= 0.70
     CG style diagonalization
     ethr =  2.20E-03,  avg # of iterations =  4.2

     total cpu time spent up to now is        4.7 secs

     total energy              =     -46.11114832 Ry
     estimated scf accuracy    <       0.05947619 Ry

     iteration #  3     ecut=    40.00 Ry     beta= 0.70
     CG style diagonalization
     ethr =  7.43E-04,  avg # of iterations =  4.1

     total cpu time spent up to now is        5.5 secs

     total energy              =     -46.12424122 Ry
     estimated scf accuracy    <       0.00075241 Ry

     iteration #  4     ecut=    40.00 Ry     beta= 0.70
     CG style diagonalization
     ethr =  9.41E-06,  avg # of iterations =  4.3

     total cpu time spent up to now is        6.2 secs

     total energy              =     -46.12464405 Ry
     estimated scf accuracy    <       0.00007946 Ry

     iteration #  5     ecut=    40.00 Ry     beta= 0.70
     CG style diagonalization
     ethr =  9.93E-07,  avg # of iterations =  4.2

     total cpu time spent up to now is        6.9 secs

     total energy              =     -46.12466426 Ry
     estimated scf accuracy    <       0.00000064 Ry

     iteration #  6     ecut=    40.00 Ry     beta= 0.70
     CG style diagonalization
     ethr =  8.04E-09,  avg # of iterations =  6.6

     total cpu time spent up to now is        7.8 secs

     total energy              =     -46.12466697 Ry
     estimated scf accuracy    <       0.00000011 Ry

     iteration #  7     ecut=    40.00 Ry     beta= 0.70
     CG style diagonalization
     ethr =  1.36E-09,  avg # of iterations =  3.5

     total cpu time spent up to now is        8.5 secs

     total energy              =     -46.12466698 Ry
     estimated scf accuracy    <       0.00000001 Ry

     iteration #  8     ecut=    40.00 Ry     beta= 0.70
     CG style diagonalization
     ethr =  1.69E-10,  avg # of iterations =  4.0

     total cpu time spent up to now is        9.2 secs

     End of self-consistent calculation

          k = 0.0000 0.0000 0.0000 (   749 PWs)   bands (ev):

    -6.9547   7.4372   8.6636   9.8104

          k =-0.3333 0.3333-0.3333 (   769 PWs)   bands (ev):

    -5.1866   1.3530   6.8132   7.5979

          k = 0.0000 0.6667 0.0000 (   777 PWs)   bands (ev):

    -4.6242   2.5821   4.8417   5.3781

          k = 0.6667-0.0000 0.6667 (   776 PWs)   bands (ev):

    -3.0798   0.4509   2.2872   5.8372

          k = 0.3333 0.3333 0.3333 (   769 PWs)   bands (ev):

    -5.2381   1.7607   6.3530   7.8677

          k =-0.3333 0.3333 0.3333 (   769 PWs)   bands (ev):

    -5.2868   2.1649   6.4086   7.3742

          k = 0.0000 0.0000 0.6667 (   777 PWs)   bands (ev):

    -4.6233   2.4627   5.0752   5.3272

          k = 0.6667 0.0000-0.6667 (   776 PWs)   bands (ev):

    -3.2673   1.0367   2.5035   5.1827

          k =-0.6667 0.6667 0.0000 (   776 PWs)   bands (ev):

    -3.1724   0.6548   2.4878   5.4903

          k =-0.6667-0.6667 0.0000 (   776 PWs)   bands (ev):

    -3.1776   0.7680   2.2834   5.6811

     highest occupied level (ev):     9.8104

!    total energy              =     -46.12466698 Ry
     estimated scf accuracy    <          1.4E-09 Ry

     The total energy is the sum of the following terms:
     one-electron contribution =       6.71809643 Ry
     hartree contribution      =       1.29616957 Ry
     xc contribution           =     -34.18025578 Ry
     ewald contribution        =     -19.95867719 Ry

     convergence has been achieved in   8 iterations

     Forces acting on atoms (cartesian axes, Ry/au):

     atom    1 type  1   force =    -0.08760829    0.08760829   -0.02762211
     atom    2 type  2   force =     0.08760829   -0.08760829    0.02762211

     Total force =     0.179518     Total SCF correction =     0.000003


     Computing stress (Cartesian axis) and pressure

          total   stress  (Ry/bohr**3)                   (kbar)     P=       30.68
   0.00017539  -0.00016387   0.00037877           25.80      -24.11       55.72
  -0.00016387   0.00017539  -0.00037877          -24.11       25.80      -55.72
   0.00037877  -0.00037877   0.00027490           55.72      -55.72       40.44


     Writing all to output data dir ./c_k3.save/
 
     init_run     :      1.77s CPU      2.01s WALL (       1 calls)
     electrons    :      5.29s CPU      5.89s WALL (       1 calls)
     forces       :      0.27s CPU      0.30s WALL (       1 calls)
     stress       :      2.23s CPU      2.34s WALL (       1 calls)

     Called by init_run:
     wfcinit      :      0.10s CPU      0.16s WALL (       1 calls)
     potinit      :      0.04s CPU      0.05s WALL (       1 calls)
     hinit0       :      1.42s CPU      1.51s WALL (       1 calls)

     Called by electrons:
     c_bands      :      1.67s CPU      1.86s WALL (       8 calls)
     sum_band     :      2.01s CPU      2.20s WALL (       8 calls)
     v_of_rho     :      0.21s CPU      0.22s WALL (       9 calls)
     newd         :      1.48s CPU      1.67s WALL (       9 calls)
     mix_rho      :      0.06s CPU      0.06s WALL (       8 calls)

     Called by c_bands:
     init_us_2    :      0.18s CPU      0.20s WALL (     190 calls)
     init_us_2:cp :      0.17s CPU      0.19s WALL (     190 calls)
     ccgdiagg     :      1.30s CPU      1.44s WALL (      80 calls)
     wfcrot       :      0.35s CPU      0.42s WALL (      80 calls)

     Called by *cgdiagg:
     h_psi        :      1.30s CPU      1.44s WALL (    1147 calls)
     s_psi        :      0.10s CPU      0.11s WALL (    2214 calls)

     Called by h_psi:
     h_psi:calbec :      0.10s CPU      0.13s WALL (    1147 calls)
     vloc_psi     :      1.08s CPU      1.18s WALL (    1147 calls)
     add_vuspsi   :      0.07s CPU      0.08s WALL (    1147 calls)
     hs_1psi      :      1.11s CPU      1.21s WALL (    1067 calls)
     s_1psi       :      0.13s CPU      0.15s WALL (    1067 calls)

     General routines
     calbec       :      0.14s CPU      0.17s WALL (    2344 calls)
     fft          :      0.15s CPU      0.18s WALL (      60 calls)
     ffts         :      0.01s CPU      0.01s WALL (      17 calls)
     fftw         :      1.03s CPU      1.12s WALL (    3174 calls)
     interpolate  :      0.03s CPU      0.04s WALL (       9 calls)
 
     Parallel routines
 
     PWSCF        :     10.34s CPU     12.25s WALL

 
   This run was terminated on:  18:27:44  19Feb2022            

=------------------------------------------------------------------------------=
   JOB DONE.
=------------------------------------------------------------------------------=
