
     Program PWSCF v.7.0 starts on 19Feb2022 at 18:36:15 

     This program is part of the open-source Quantum ESPRESSO suite
     for quantum simulation of materials; please cite
         "P. Giannozzi et al., J. Phys.:Condens. Matter 21 395502 (2009);
         "P. Giannozzi et al., J. Phys.:Condens. Matter 29 465901 (2017);
         "P. Giannozzi et al., J. Chem. Phys. 152 154105 (2020);
          URL http://www.quantum-espresso.org", 
     in publications or presentations arising from this work. More details at
     http://www.quantum-espresso.org/quote

     Parallel version (MPI), running on     1 processors

     MPI processes distributed on     1 nodes
     90002 MiB available memory on the printing compute node when the environment starts
 
     Waiting for input...
     Reading input from standard input
Warning: card &CELL ignored
Warning: card  CELL_DYNAMICS = 'BFGS', ignored
Warning: card  PRESS=0.1D0, ignored
Warning: card / ignored

     Current dimensions of program PWSCF are:
     Max number of different atomic species (ntypx) = 10
     Max number of k-points (npk) =  40000
     Max angular momentum in pseudopotentials (lmaxx) =  4

     Subspace diagonalization in iterative solution of the eigenvalue problem:
     a serial algorithm will be used

 
     G-vector sticks info
     --------------------
     sticks:   dense  smooth     PW     G-vecs:    dense   smooth      PW
     Sum        1345     439    151                32455     6231    1139
 
     Using Slab Decomposition
 


     bravais-lattice index     =            2
     lattice parameter (alat)  =       9.0000  a.u.
     unit-cell volume          =     182.2500 (a.u.)^3
     number of atoms/cell      =            2
     number of atomic types    =            2
     number of electrons       =         8.00
     number of Kohn-Sham states=            4
     kinetic-energy cutoff     =      40.0000  Ry
     charge density cutoff     =     480.0000  Ry
     scf convergence threshold =      1.0E-08
     mixing beta               =       0.7000
     number of iterations used =            8  plain     mixing
     Exchange-correlation= SLA  PZ   NOGX NOGC
                           (   1   1   0   0   0   0   0)

     celldm(1)=   9.000000  celldm(2)=   0.000000  celldm(3)=   0.000000
     celldm(4)=   0.000000  celldm(5)=   0.000000  celldm(6)=   0.000000

     crystal axes: (cart. coord. in units of alat)
               a(1) = (  -0.500000   0.000000   0.500000 )  
               a(2) = (   0.000000   0.500000   0.500000 )  
               a(3) = (  -0.500000   0.500000   0.000000 )  

     reciprocal axes: (cart. coord. in units 2 pi/alat)
               b(1) = ( -1.000000 -1.000000  1.000000 )  
               b(2) = (  1.000000  1.000000  1.000000 )  
               b(3) = ( -1.000000  1.000000 -1.000000 )  


     PseudoPot. # 1 for B  read from file:
     ./pseudo_dir/B_LDA.UPF
     MD5 check sum: a9970de764dbc07c3a3d9583c605c3b2
     Pseudo is Ultrasoft + core correction, Zval =  3.0
     Generated by new atomic code, or converted to UPF format
     Using radial grid of  781 points,  4 beta functions with: 
                l(1) =   0
                l(2) =   0
                l(3) =   1
                l(4) =   1
     Q(r) pseudized with  8 coefficients,  rinner =    1.100   1.100   1.100


     PseudoPot. # 2 for As read from file:
     ./pseudo_dir/As_LDA.UPF
     MD5 check sum: 6d2e8cbe4ed9d0db7c6ef7a361cc050d
     Pseudo is Ultrasoft + core correction, Zval =  5.0
     Generated by new atomic code, or converted to UPF format
     Using radial grid of  875 points,  6 beta functions with: 
                l(1) =   0
                l(2) =   0
                l(3) =   1
                l(4) =   1
                l(5) =   2
                l(6) =   2
     Q(r) pseudized with  8 coefficients,  rinner =    1.300   1.300   1.300
                                                       1.300   1.300

     atomic species   valence    mass     pseudopotential
        B              3.00    10.81100     B ( 1.00)
        As             5.00    74.92160     As( 1.00)

      2 Sym. Ops. (no inversion) found



   Cartesian axes

     site n.     atom                  positions (alat units)
         1           B   tau(   1) = (   0.0000000   0.0000000   0.0000000  )
         2           As  tau(   2) = (  -0.2750000   0.2750000   0.2500000  )

     number of k points=   205

     Number of k-points >= 100: set verbosity='high' to print them.

     Dense  grid:    32455 G-vectors     FFT dimensions: (  45,  45,  45)

     Smooth grid:     6231 G-vectors     FFT dimensions: (  25,  25,  25)

     Estimated max dynamical RAM per process >     133.70 MB

     Initial potential from superposition of free atoms

     starting charge       7.9996, renormalised to       8.0000
     Starting wfcs are    8 randomized atomic wfcs

     total cpu time spent up to now is        5.4 secs

     Self-consistent Calculation

     iteration #  1     ecut=    40.00 Ry     beta= 0.70
     CG style diagonalization
     ethr =  1.00E-02,  avg # of iterations =  2.7

     total cpu time spent up to now is        9.7 secs

     total energy              =     -46.13114946 Ry
     estimated scf accuracy    <       0.14947315 Ry

     iteration #  2     ecut=    40.00 Ry     beta= 0.70
     CG style diagonalization
     ethr =  1.87E-03,  avg # of iterations =  4.2

     total cpu time spent up to now is       15.3 secs

     total energy              =     -46.16510156 Ry
     estimated scf accuracy    <       0.04271892 Ry

     iteration #  3     ecut=    40.00 Ry     beta= 0.70
     CG style diagonalization
     ethr =  5.34E-04,  avg # of iterations =  4.0

     total cpu time spent up to now is       20.8 secs

     total energy              =     -46.17433520 Ry
     estimated scf accuracy    <       0.00039099 Ry

     iteration #  4     ecut=    40.00 Ry     beta= 0.70
     CG style diagonalization
     ethr =  4.89E-06,  avg # of iterations =  4.6

     total cpu time spent up to now is       26.9 secs

     total energy              =     -46.17462194 Ry
     estimated scf accuracy    <       0.00008338 Ry

     iteration #  5     ecut=    40.00 Ry     beta= 0.70
     CG style diagonalization
     ethr =  1.04E-06,  avg # of iterations =  4.0

     total cpu time spent up to now is       32.3 secs

     total energy              =     -46.17464201 Ry
     estimated scf accuracy    <       0.00000147 Ry

     iteration #  6     ecut=    40.00 Ry     beta= 0.70
     CG style diagonalization
     ethr =  1.84E-08,  avg # of iterations =  6.0

     total cpu time spent up to now is       39.9 secs

     total energy              =     -46.17464447 Ry
     estimated scf accuracy    <       0.00000006 Ry

     iteration #  7     ecut=    40.00 Ry     beta= 0.70
     CG style diagonalization
     ethr =  7.08E-10,  avg # of iterations =  4.7

     total cpu time spent up to now is       46.1 secs

     End of self-consistent calculation

     Number of k-points >= 100: set verbosity='high' to print the bands.

     highest occupied level (ev):     9.6986

!    total energy              =     -46.17464450 Ry
     estimated scf accuracy    <          8.7E-09 Ry

     The total energy is the sum of the following terms:
     one-electron contribution =       6.69513692 Ry
     hartree contribution      =       1.24474027 Ry
     xc contribution           =     -34.15584449 Ry
     ewald contribution        =     -19.95867719 Ry

     convergence has been achieved in   7 iterations

     Forces acting on atoms (cartesian axes, Ry/au):

     atom    1 type  1   force =    -0.07792762    0.07792762   -0.02681388
     atom    2 type  2   force =     0.07792762   -0.07792762    0.02681388

     Total force =     0.160402     Total SCF correction =     0.000012


     Computing stress (Cartesian axis) and pressure

          total   stress  (Ry/bohr**3)                   (kbar)     P=        6.43
   0.00001293  -0.00015609   0.00036824            1.90      -22.96       54.17
  -0.00015609   0.00001293  -0.00036824          -22.96        1.90      -54.17
   0.00036824  -0.00036824   0.00010529           54.17      -54.17       15.49


     Writing all to output data dir ./c_k9.save/
 
     init_run     :      3.65s CPU      3.98s WALL (       1 calls)
     electrons    :     37.39s CPU     40.74s WALL (       1 calls)
     forces       :      0.64s CPU      0.68s WALL (       1 calls)
     stress       :      4.78s CPU      4.92s WALL (       1 calls)

     Called by init_run:
     wfcinit      :      1.95s CPU      2.09s WALL (       1 calls)
     potinit      :      0.04s CPU      0.05s WALL (       1 calls)
     hinit0       :      1.41s CPU      1.50s WALL (       1 calls)

     Called by electrons:
     c_bands      :     30.41s CPU     33.25s WALL (       7 calls)
     sum_band     :      5.59s CPU      5.87s WALL (       7 calls)
     v_of_rho     :      0.18s CPU      0.19s WALL (       8 calls)
     newd         :      1.30s CPU      1.49s WALL (       8 calls)
     mix_rho      :      0.05s CPU      0.05s WALL (       7 calls)

     Called by c_bands:
     init_us_2    :      3.35s CPU      3.60s WALL (    3485 calls)
     init_us_2:cp :      3.28s CPU      3.55s WALL (    3485 calls)
     ccgdiagg     :     23.89s CPU     26.23s WALL (    1435 calls)
     wfcrot       :      6.29s CPU      6.61s WALL (    1435 calls)

     Called by *cgdiagg:
     h_psi        :     24.06s CPU     26.05s WALL (   21335 calls)
     s_psi        :      1.78s CPU      1.97s WALL (   41235 calls)

     Called by h_psi:
     h_psi:calbec :      1.77s CPU      1.92s WALL (   21335 calls)
     vloc_psi     :     20.06s CPU     21.73s WALL (   21335 calls)
     add_vuspsi   :      1.18s CPU      1.29s WALL (   21335 calls)
     hs_1psi      :     20.46s CPU     22.39s WALL (   19900 calls)
     s_1psi       :      2.25s CPU      2.47s WALL (   19900 calls)

     General routines
     calbec       :      2.53s CPU      2.79s WALL (   43695 calls)
     fft          :      0.13s CPU      0.16s WALL (      54 calls)
     ffts         :      0.01s CPU      0.01s WALL (      15 calls)
     fftw         :     19.12s CPU     20.65s WALL (   58660 calls)
     interpolate  :      0.03s CPU      0.03s WALL (       8 calls)
 
     Parallel routines
 
     PWSCF        :     47.45s CPU     53.95s WALL

 
   This run was terminated on:  18:37: 9  19Feb2022            

=------------------------------------------------------------------------------=
   JOB DONE.
=------------------------------------------------------------------------------=
