
     Program PWSCF v.7.0 starts on 14Mar2022 at 20:50:34 

     This program is part of the open-source Quantum ESPRESSO suite
     for quantum simulation of materials; please cite
         "P. Giannozzi et al., J. Phys.:Condens. Matter 21 395502 (2009);
         "P. Giannozzi et al., J. Phys.:Condens. Matter 29 465901 (2017);
         "P. Giannozzi et al., J. Chem. Phys. 152 154105 (2020);
          URL http://www.quantum-espresso.org", 
     in publications or presentations arising from this work. More details at
     http://www.quantum-espresso.org/quote

     Parallel version (MPI), running on     1 processors

     MPI processes distributed on     1 nodes
     90385 MiB available memory on the printing compute node when the environment starts
 
     Waiting for input...
     Reading input from standard input
Warning: card &CELL ignored
Warning: card  CELL_DYNAMICS = 'BFGS', ignored
Warning: card  PRESS=0.1D0, ignored
Warning: card / ignored
     Message from routine read_cards :
     DEPRECATED: no units specified in ATOMIC_POSITIONS card
     Message from routine read_cards :
     ATOMIC_POSITIONS: units set to alat

     Current dimensions of program PWSCF are:
     Max number of different atomic species (ntypx) = 10
     Max number of k-points (npk) =  40000
     Max angular momentum in pseudopotentials (lmaxx) =  4

     Subspace diagonalization in iterative solution of the eigenvalue problem:
     a serial algorithm will be used

 
     G-vector sticks info
     --------------------
     sticks:   dense  smooth     PW     G-vecs:    dense   smooth      PW
     Sum         253     253     85                 2637     2637     537
 
     Using Slab Decomposition
 


     bravais-lattice index     =            0
     lattice parameter (alat)  =       6.6800  a.u.
     unit-cell volume          =      74.5193 (a.u.)^3
     number of atoms/cell      =            2
     number of atomic types    =            1
     number of electrons       =         8.00
     number of Kohn-Sham states=            4
     kinetic-energy cutoff     =      40.0000  Ry
     charge density cutoff     =     160.0000  Ry
     scf convergence threshold =      1.0E-08
     mixing beta               =       0.7000
     number of iterations used =            8  plain     mixing
     energy convergence thresh.=      1.0E-04
     force convergence thresh. =      1.0E-03
     Exchange-correlation= SLA  PZ   NOGX NOGC
                           (   1   1   0   0   0   0   0)
     nstep                     =           50


     celldm(1)=   6.680000  celldm(2)=   0.000000  celldm(3)=   0.000000
     celldm(4)=   0.000000  celldm(5)=   0.000000  celldm(6)=   0.000000

     crystal axes: (cart. coord. in units of alat)
               a(1) = (  -0.500000   0.000500   0.500500 )  
               a(2) = (  -0.000500   0.500000   0.500500 )  
               a(3) = (  -0.500000   0.500000   0.000000 )  

     reciprocal axes: (cart. coord. in units 2 pi/alat)
               b(1) = ( -1.001001 -1.001001  0.999001 )  
               b(2) = (  1.001001  1.001001  0.999001 )  
               b(3) = ( -1.000000  1.000000 -1.000000 )  


     PseudoPot. # 1 for C  read from file:
     ./C_LDA.UPF
     MD5 check sum: 407c1fe918d93b14b177d5600f28733c
     Pseudo is Ultrasoft + core correction, Zval =  4.0
     Generated by new atomic code, or converted to UPF format
     Using radial grid of  721 points,  4 beta functions with: 
                l(1) =   0
                l(2) =   0
                l(3) =   1
                l(4) =   1
     Q(r) pseudized with  8 coefficients,  rinner =    1.100   1.100   1.100


     atomic species   valence    mass     pseudopotential
        C              4.00    12.01100     C ( 1.00)

     No symmetry found



   Cartesian axes

     site n.     atom                  positions (alat units)
         1           C   tau(   1) = (   0.0000000   0.0000000   0.0000000  )
         2           C   tau(   2) = (   0.2500000   0.2500000   0.2500000  )

     number of k points=   112

     Number of k-points >= 100: set verbosity='high' to print them.

     Dense  grid:     2637 G-vectors     FFT dimensions: (  20,  20,  20)

     Estimated max dynamical RAM per process >       6.22 MB

     Initial potential from superposition of free atoms

     starting charge       7.9999, renormalised to       8.0000
     Starting wfcs are    8 randomized atomic wfcs

     total cpu time spent up to now is        2.8 secs

     Self-consistent Calculation

     iteration #  1     ecut=    40.00 Ry     beta= 0.70
     CG style diagonalization
     ethr =  1.00E-02,  avg # of iterations =  3.0

     total cpu time spent up to now is        4.6 secs

     total energy              =     -23.03945335 Ry
     estimated scf accuracy    <       0.14052003 Ry

     iteration #  2     ecut=    40.00 Ry     beta= 0.70
     CG style diagonalization
     ethr =  1.76E-03,  avg # of iterations =  3.6

     total cpu time spent up to now is        6.6 secs

     total energy              =     -23.05575991 Ry
     estimated scf accuracy    <       0.00146236 Ry

     iteration #  3     ecut=    40.00 Ry     beta= 0.70
     CG style diagonalization
     ethr =  1.83E-05,  avg # of iterations =  4.0

     total cpu time spent up to now is        8.7 secs

     total energy              =     -23.05624719 Ry
     estimated scf accuracy    <       0.00004727 Ry

     iteration #  4     ecut=    40.00 Ry     beta= 0.70
     CG style diagonalization
     ethr =  5.91E-07,  avg # of iterations =  4.0

     total cpu time spent up to now is       10.8 secs

     total energy              =     -23.05626398 Ry
     estimated scf accuracy    <       0.00000205 Ry

     iteration #  5     ecut=    40.00 Ry     beta= 0.70
     CG style diagonalization
     ethr =  2.56E-08,  avg # of iterations =  4.0

     total cpu time spent up to now is       12.9 secs

     total energy              =     -23.05626469 Ry
     estimated scf accuracy    <       0.00000001 Ry

     iteration #  6     ecut=    40.00 Ry     beta= 0.70
     CG style diagonalization
     ethr =  1.83E-10,  avg # of iterations =  4.7

     total cpu time spent up to now is       15.3 secs

     End of self-consistent calculation

     Number of k-points >= 100: set verbosity='high' to print the bands.

     highest occupied level (ev):    13.6075

!    total energy              =     -23.05626471 Ry
     estimated scf accuracy    <          1.8E-10 Ry

     The total energy is the sum of the following terms:
     one-electron contribution =       8.24603681 Ry
     hartree contribution      =       1.89196016 Ry
     xc contribution           =      -7.38925759 Ry
     ewald contribution        =     -25.80500409 Ry

     convergence has been achieved in   6 iterations

     Forces acting on atoms (cartesian axes, Ry/au):

     atom    1 type  1   force =     0.00207291    0.00060201   -0.00148500
     atom    2 type  1   force =    -0.00207291   -0.00060201    0.00148500

     Total force =     0.003705     Total SCF correction =     0.000001


     Computing stress (Cartesian axis) and pressure

          total   stress  (Ry/bohr**3)                   (kbar)     P=      -12.49
  -0.00005256   0.00004389   0.00001822           -7.73        6.46        2.68
   0.00004389  -0.00005256  -0.00002538            6.46       -7.73       -3.73
   0.00001822  -0.00002538  -0.00014964            2.68       -3.73      -22.01


     BFGS Geometry Optimization
     Energy error            =      0.0E+00 Ry
     Gradient error          =      2.1E-03 Ry/Bohr

     number of scf cycles    =   1
     number of bfgs steps    =   0

     energy             new  =     -23.0562647141 Ry

     new trust radius        =       0.0026200400 bohr
     new conv_thr            =       0.0000000100 Ry


ATOMIC_POSITIONS (alat)
C             0.0003103166        0.0000901220       -0.0002223048
C             0.2496896834        0.2499098780        0.2502223048



     Writing config-only to output data dir ./Diamond.save/
     NEW-OLD atomic charge density approx. for the potential

     total cpu time spent up to now is       16.3 secs

     Self-consistent Calculation

     iteration #  1     ecut=    40.00 Ry     beta= 0.70
     CG style diagonalization
     c_bands:  1 eigenvalues not converged
     c_bands:  1 eigenvalues not converged
     c_bands:  1 eigenvalues not converged
     c_bands:  1 eigenvalues not converged
     ethr =  1.00E-06,  avg # of iterations =  4.2

     Threshold (ethr) on eigenvalues was too large:
     Diagonalizing with lowered threshold

     CG style diagonalization
     c_bands:  2 eigenvalues not converged
     c_bands:  1 eigenvalues not converged
     c_bands:  1 eigenvalues not converged
     c_bands:  1 eigenvalues not converged
     c_bands:  1 eigenvalues not converged
     c_bands:  1 eigenvalues not converged
     c_bands:  1 eigenvalues not converged
     c_bands:  1 eigenvalues not converged
     c_bands:  1 eigenvalues not converged
     c_bands:  1 eigenvalues not converged
     c_bands:  1 eigenvalues not converged
     ethr =  2.15E-08,  avg # of iterations =  5.3

     total cpu time spent up to now is       21.1 secs

     total energy              =     -23.05626482 Ry
     estimated scf accuracy    <       0.00000136 Ry

     iteration #  2     ecut=    40.00 Ry     beta= 0.70
     CG style diagonalization
     ethr =  1.70E-08,  avg # of iterations =  3.5

     total cpu time spent up to now is       22.9 secs

     total energy              =     -23.05626748 Ry
     estimated scf accuracy    <       0.00000002 Ry

     iteration #  3     ecut=    40.00 Ry     beta= 0.70
     CG style diagonalization
     ethr =  3.05E-10,  avg # of iterations =  3.9

     total cpu time spent up to now is       25.0 secs

     End of self-consistent calculation

     Number of k-points >= 100: set verbosity='high' to print the bands.

     highest occupied level (ev):    13.6054

!    total energy              =     -23.05626749 Ry
     estimated scf accuracy    <          1.3E-09 Ry

     The total energy is the sum of the following terms:
     one-electron contribution =       8.24607856 Ry
     hartree contribution      =       1.89195206 Ry
     xc contribution           =      -7.38925726 Ry
     ewald contribution        =     -25.80504085 Ry

     convergence has been achieved in   3 iterations

     Forces acting on atoms (cartesian axes, Ry/au):

     atom    1 type  1   force =    -0.00123310   -0.00037168    0.00087896
     atom    2 type  1   force =     0.00123310    0.00037168   -0.00087896

     Total force =     0.002205     Total SCF correction =     0.000014


     Computing stress (Cartesian axis) and pressure

          total   stress  (Ry/bohr**3)                   (kbar)     P=      -12.48
  -0.00005249   0.00003778   0.00002100           -7.72        5.56        3.09
   0.00003778  -0.00005247  -0.00001672            5.56       -7.72       -2.46
   0.00002100  -0.00001672  -0.00014960            3.09       -2.46      -22.01

     Energy error            =      2.8E-06 Ry
     Gradient error          =      1.2E-03 Ry/Bohr

     number of scf cycles    =   2
     number of bfgs steps    =   1

     energy             old  =     -23.0562647141 Ry
     energy             new  =     -23.0562674920 Ry

     CASE: energy            _new < energy            _old

     new trust radius        =       0.0009774929 bohr
     new conv_thr            =            1.0E-10 Ry


ATOMIC_POSITIONS (alat)
C             0.0001945933        0.0000552405       -0.0001398169
C             0.2498054067        0.2499447595        0.2501398169



     Writing config-only to output data dir ./Diamond.save/
     NEW-OLD atomic charge density approx. for the potential

     total cpu time spent up to now is       25.6 secs

     Self-consistent Calculation

     iteration #  1     ecut=    40.00 Ry     beta= 0.70
     CG style diagonalization
     c_bands:  1 eigenvalues not converged
     c_bands:  1 eigenvalues not converged
     ethr =  1.00E-06,  avg # of iterations =  2.7

     Threshold (ethr) on eigenvalues was too large:
     Diagonalizing with lowered threshold

     CG style diagonalization
     c_bands:  1 eigenvalues not converged
     c_bands:  1 eigenvalues not converged
     c_bands:  1 eigenvalues not converged
     c_bands:  1 eigenvalues not converged
     c_bands:  1 eigenvalues not converged
     c_bands:  1 eigenvalues not converged
     c_bands:  1 eigenvalues not converged
     c_bands:  1 eigenvalues not converged
     c_bands:  1 eigenvalues not converged
     c_bands:  1 eigenvalues not converged
     c_bands:  1 eigenvalues not converged
     c_bands:  1 eigenvalues not converged
     c_bands:  1 eigenvalues not converged
     c_bands:  1 eigenvalues not converged
     c_bands:  2 eigenvalues not converged
     c_bands:  1 eigenvalues not converged
     c_bands:  1 eigenvalues not converged
     c_bands:  1 eigenvalues not converged
     c_bands:  1 eigenvalues not converged
     c_bands:  1 eigenvalues not converged
     c_bands:  1 eigenvalues not converged
     c_bands:  1 eigenvalues not converged
     c_bands:  1 eigenvalues not converged
     c_bands:  1 eigenvalues not converged
     c_bands:  1 eigenvalues not converged
     c_bands:  1 eigenvalues not converged
     c_bands:  1 eigenvalues not converged
     ethr =  2.78E-09,  avg # of iterations =  6.8

     total cpu time spent up to now is       30.5 secs

     total energy              =     -23.05626873 Ry
     estimated scf accuracy    <       0.00000019 Ry

     iteration #  2     ecut=    40.00 Ry     beta= 0.70
     CG style diagonalization
     ethr =  2.35E-09,  avg # of iterations =  3.5

     total cpu time spent up to now is       32.4 secs

     total energy              =     -23.05626901 Ry
     estimated scf accuracy    <          3.3E-09 Ry

     iteration #  3     ecut=    40.00 Ry     beta= 0.70
     CG style diagonalization
     ethr =  4.15E-11,  avg # of iterations =  3.9

     total cpu time spent up to now is       34.4 secs

     total energy              =     -23.05626901 Ry
     estimated scf accuracy    <          1.7E-10 Ry

     iteration #  4     ecut=    40.00 Ry     beta= 0.70
     CG style diagonalization
     ethr =  2.12E-12,  avg # of iterations =  3.8

     total cpu time spent up to now is       36.5 secs

     End of self-consistent calculation

     Number of k-points >= 100: set verbosity='high' to print the bands.

     highest occupied level (ev):    13.5923

!    total energy              =     -23.05626901 Ry
     estimated scf accuracy    <          1.5E-12 Ry

     The total energy is the sum of the following terms:
     one-electron contribution =       8.24606442 Ry
     hartree contribution      =       1.89195828 Ry
     xc contribution           =      -7.38925870 Ry
     ewald contribution        =     -25.80503302 Ry

     convergence has been achieved in   4 iterations

     Forces acting on atoms (cartesian axes, Ry/au):

     atom    1 type  1   force =    -0.00000017    0.00000143    0.00000240
     atom    2 type  1   force =     0.00000017   -0.00000143   -0.00000240

     Total force =     0.000004     Total SCF correction =     0.000001
     SCF correction compared to forces is large: reduce conv_thr to get better values


     Computing stress (Cartesian axis) and pressure

          total   stress  (Ry/bohr**3)                   (kbar)     P=      -12.48
  -0.00005244   0.00004004   0.00001996           -7.71        5.89        2.94
   0.00004004  -0.00005244  -0.00001995            5.89       -7.71       -2.93
   0.00001996  -0.00001995  -0.00014954            2.94       -2.93      -22.00

     Energy error            =      1.5E-06 Ry
     Gradient error          =      2.4E-06 Ry/Bohr

     bfgs converged in   3 scf cycles and   2 bfgs steps
     (criteria: energy <  1.0E-04 Ry, force <  1.0E-03 Ry/Bohr)

     End of BFGS Geometry Optimization

     Final energy             =     -23.0562690144 Ry

     File ./Diamond.bfgs deleted, as requested
Begin final coordinates

ATOMIC_POSITIONS (alat)
C             0.0001945933        0.0000552405       -0.0001398169
C             0.2498054067        0.2499447595        0.2501398169
End final coordinates



     Writing all to output data dir ./Diamond.save/
 
     init_run     :      1.07s CPU      1.57s WALL (       1 calls)
     electrons    :     26.62s CPU     32.07s WALL (       3 calls)
     update_pot   :      0.05s CPU      0.05s WALL (       2 calls)
     forces       :      0.22s CPU      0.35s WALL (       3 calls)
     stress       :      1.13s CPU      1.18s WALL (       3 calls)

     Called by init_run:
     wfcinit      :      0.74s CPU      0.89s WALL (       1 calls)
     potinit      :      0.01s CPU      0.04s WALL (       1 calls)
     hinit0       :      0.31s CPU      0.45s WALL (       1 calls)

     Called by electrons:
     c_bands      :     23.86s CPU     29.04s WALL (      15 calls)
     sum_band     :      2.67s CPU      2.82s WALL (      15 calls)
     v_of_rho     :      0.03s CPU      0.05s WALL (      16 calls)
     newd         :      0.06s CPU      0.08s WALL (      16 calls)
     mix_rho      :      0.01s CPU      0.01s WALL (      15 calls)

     Called by c_bands:
     init_us_2    :      0.82s CPU      0.98s WALL (    4144 calls)
     init_us_2:cp :      0.75s CPU      0.92s WALL (    4144 calls)
     ccgdiagg     :     19.32s CPU     21.57s WALL (    1680 calls)
     wfcrot       :      4.18s CPU      4.57s WALL (    1232 calls)

     Called by *cgdiagg:
     h_psi        :     19.28s CPU     21.28s WALL (   23957 calls)
     s_psi        :      0.89s CPU      1.06s WALL (   46682 calls)

     Called by h_psi:
     h_psi:calbec :      0.79s CPU      0.90s WALL (   23957 calls)
     vloc_psi     :     17.07s CPU     18.77s WALL (   23957 calls)
     add_vuspsi   :      0.50s CPU      0.58s WALL (   23957 calls)
     hs_1psi      :     17.03s CPU     18.92s WALL (   22725 calls)
     s_1psi       :      1.51s CPU      1.69s WALL (   22725 calls)

     General routines
     calbec       :      0.99s CPU      1.17s WALL (   50042 calls)
     fft          :      0.03s CPU      0.07s WALL (      92 calls)
     ffts         :      0.00s CPU      0.00s WALL (      15 calls)
     fftw         :     17.36s CPU     19.03s WALL (   62922 calls)
 
     Parallel routines
 
     PWSCF        :     29.64s CPU     37.76s WALL

 
   This run was terminated on:  20:51:12  14Mar2022            

=------------------------------------------------------------------------------=
   JOB DONE.
=------------------------------------------------------------------------------=
