
     Program PWSCF v.7.0 starts on 14Mar2022 at 20:51:50 

     This program is part of the open-source Quantum ESPRESSO suite
     for quantum simulation of materials; please cite
         "P. Giannozzi et al., J. Phys.:Condens. Matter 21 395502 (2009);
         "P. Giannozzi et al., J. Phys.:Condens. Matter 29 465901 (2017);
         "P. Giannozzi et al., J. Chem. Phys. 152 154105 (2020);
          URL http://www.quantum-espresso.org", 
     in publications or presentations arising from this work. More details at
     http://www.quantum-espresso.org/quote

     Parallel version (MPI), running on     1 processors

     MPI processes distributed on     1 nodes
     90339 MiB available memory on the printing compute node when the environment starts
 
     Waiting for input...
     Reading input from standard input
Warning: card &CELL ignored
Warning: card  CELL_DYNAMICS = 'BFGS', ignored
Warning: card  PRESS=0.1D0, ignored
Warning: card / ignored
     Message from routine read_cards :
     DEPRECATED: no units specified in ATOMIC_POSITIONS card
     Message from routine read_cards :
     ATOMIC_POSITIONS: units set to alat

     Current dimensions of program PWSCF are:
     Max number of different atomic species (ntypx) = 10
     Max number of k-points (npk) =  40000
     Max angular momentum in pseudopotentials (lmaxx) =  4

     Subspace diagonalization in iterative solution of the eigenvalue problem:
     a serial algorithm will be used

 
     G-vector sticks info
     --------------------
     sticks:   dense  smooth     PW     G-vecs:    dense   smooth      PW
     Sum         253     253     85                 2625     2625     537
 
     Using Slab Decomposition
 


     bravais-lattice index     =            0
     lattice parameter (alat)  =       6.6800  a.u.
     unit-cell volume          =      74.5187 (a.u.)^3
     number of atoms/cell      =            2
     number of atomic types    =            1
     number of electrons       =         8.00
     number of Kohn-Sham states=            4
     kinetic-energy cutoff     =      40.0000  Ry
     charge density cutoff     =     160.0000  Ry
     scf convergence threshold =      1.0E-08
     mixing beta               =       0.7000
     number of iterations used =            8  plain     mixing
     energy convergence thresh.=      1.0E-04
     force convergence thresh. =      1.0E-03
     Exchange-correlation= SLA  PZ   NOGX NOGC
                           (   1   1   0   0   0   0   0)
     nstep                     =           50


     celldm(1)=   6.680000  celldm(2)=   0.000000  celldm(3)=   0.000000
     celldm(4)=   0.000000  celldm(5)=   0.000000  celldm(6)=   0.000000

     crystal axes: (cart. coord. in units of alat)
               a(1) = (  -0.500000   0.001500   0.501500 )  
               a(2) = (  -0.001500   0.500000   0.501500 )  
               a(3) = (  -0.500000   0.500000   0.000000 )  

     reciprocal axes: (cart. coord. in units 2 pi/alat)
               b(1) = ( -1.003009 -1.003009  0.997009 )  
               b(2) = (  1.003009  1.003009  0.997009 )  
               b(3) = ( -1.000000  1.000000 -1.000000 )  


     PseudoPot. # 1 for C  read from file:
     ./C_LDA.UPF
     MD5 check sum: 407c1fe918d93b14b177d5600f28733c
     Pseudo is Ultrasoft + core correction, Zval =  4.0
     Generated by new atomic code, or converted to UPF format
     Using radial grid of  721 points,  4 beta functions with: 
                l(1) =   0
                l(2) =   0
                l(3) =   1
                l(4) =   1
     Q(r) pseudized with  8 coefficients,  rinner =    1.100   1.100   1.100


     atomic species   valence    mass     pseudopotential
        C              4.00    12.01100     C ( 1.00)

     No symmetry found



   Cartesian axes

     site n.     atom                  positions (alat units)
         1           C   tau(   1) = (   0.0000000   0.0000000   0.0000000  )
         2           C   tau(   2) = (   0.2500000   0.2500000   0.2500000  )

     number of k points=   112

     Number of k-points >= 100: set verbosity='high' to print them.

     Dense  grid:     2625 G-vectors     FFT dimensions: (  20,  20,  20)

     Estimated max dynamical RAM per process >       6.20 MB

     Initial potential from superposition of free atoms

     starting charge       7.9999, renormalised to       8.0000
     Starting wfcs are    8 randomized atomic wfcs

     total cpu time spent up to now is        1.5 secs

     Self-consistent Calculation

     iteration #  1     ecut=    40.00 Ry     beta= 0.70
     CG style diagonalization
     ethr =  1.00E-02,  avg # of iterations =  3.0

     total cpu time spent up to now is        3.3 secs

     total energy              =     -23.03935450 Ry
     estimated scf accuracy    <       0.14051051 Ry

     iteration #  2     ecut=    40.00 Ry     beta= 0.70
     CG style diagonalization
     ethr =  1.76E-03,  avg # of iterations =  3.6

     total cpu time spent up to now is        5.2 secs

     total energy              =     -23.05567502 Ry
     estimated scf accuracy    <       0.00146824 Ry

     iteration #  3     ecut=    40.00 Ry     beta= 0.70
     CG style diagonalization
     ethr =  1.84E-05,  avg # of iterations =  4.0

     total cpu time spent up to now is        7.4 secs

     total energy              =     -23.05616262 Ry
     estimated scf accuracy    <       0.00004720 Ry

     iteration #  4     ecut=    40.00 Ry     beta= 0.70
     CG style diagonalization
     ethr =  5.90E-07,  avg # of iterations =  4.0

     total cpu time spent up to now is        9.5 secs

     total energy              =     -23.05617960 Ry
     estimated scf accuracy    <       0.00000202 Ry

     iteration #  5     ecut=    40.00 Ry     beta= 0.70
     CG style diagonalization
     ethr =  2.53E-08,  avg # of iterations =  4.0

     total cpu time spent up to now is       11.7 secs

     total energy              =     -23.05618030 Ry
     estimated scf accuracy    <       0.00000001 Ry

     iteration #  6     ecut=    40.00 Ry     beta= 0.70
     CG style diagonalization
     ethr =  1.71E-10,  avg # of iterations =  4.7

     total cpu time spent up to now is       14.1 secs

     End of self-consistent calculation

     Number of k-points >= 100: set verbosity='high' to print the bands.

     highest occupied level (ev):    13.6568

!    total energy              =     -23.05618033 Ry
     estimated scf accuracy    <          6.4E-10 Ry

     The total energy is the sum of the following terms:
     one-electron contribution =       8.24594235 Ry
     hartree contribution      =       1.89203142 Ry
     xc contribution           =      -7.38928346 Ry
     ewald contribution        =     -25.80487064 Ry

     convergence has been achieved in   6 iterations

     Forces acting on atoms (cartesian axes, Ry/au):

     atom    1 type  1   force =     0.00623289    0.00188309   -0.00444796
     atom    2 type  1   force =    -0.00623289   -0.00188309    0.00444796

     Total force =     0.011152     Total SCF correction =     0.000001


     Computing stress (Cartesian axis) and pressure

          total   stress  (Ry/bohr**3)                   (kbar)     P=      -12.27
   0.00001384   0.00013205   0.00005314            2.04       19.42        7.82
   0.00013205   0.00001394  -0.00007608           19.42        2.05      -11.19
   0.00005314  -0.00007608  -0.00027792            7.82      -11.19      -40.88


     BFGS Geometry Optimization
     Energy error            =      0.0E+00 Ry
     Gradient error          =      6.2E-03 Ry/Bohr

     number of scf cycles    =   1
     number of bfgs steps    =   0

     energy             new  =     -23.0561803252 Ry

     new trust radius        =       0.0078853859 bohr
     new conv_thr            =       0.0000000100 Ry


ATOMIC_POSITIONS (alat)
C             0.0009330673        0.0002818993       -0.0006658628
C             0.2490669327        0.2497181007        0.2506658628



     Writing config-only to output data dir ./Diamond.save/
     NEW-OLD atomic charge density approx. for the potential

     total cpu time spent up to now is       14.7 secs

     Self-consistent Calculation

     iteration #  1     ecut=    40.00 Ry     beta= 0.70
     CG style diagonalization
     c_bands:  2 eigenvalues not converged
     c_bands:  1 eigenvalues not converged
     c_bands:  1 eigenvalues not converged
     c_bands:  1 eigenvalues not converged
     c_bands:  1 eigenvalues not converged
     c_bands:  1 eigenvalues not converged
     c_bands:  1 eigenvalues not converged
     c_bands:  1 eigenvalues not converged
     c_bands:  1 eigenvalues not converged
     c_bands:  1 eigenvalues not converged
     c_bands:  1 eigenvalues not converged
     c_bands:  1 eigenvalues not converged
     c_bands:  1 eigenvalues not converged
     c_bands:  1 eigenvalues not converged
     c_bands:  1 eigenvalues not converged
     ethr =  1.00E-06,  avg # of iterations =  6.4

     total cpu time spent up to now is       17.9 secs

     total energy              =     -23.05618552 Ry
     estimated scf accuracy    <       0.00001191 Ry

     iteration #  2     ecut=    40.00 Ry     beta= 0.70
     CG style diagonalization
     ethr =  1.49E-07,  avg # of iterations =  3.7

     total cpu time spent up to now is       19.9 secs

     total energy              =     -23.05620476 Ry
     estimated scf accuracy    <       0.00000026 Ry

     iteration #  3     ecut=    40.00 Ry     beta= 0.70
     CG style diagonalization
     ethr =  3.22E-09,  avg # of iterations =  3.9

     total cpu time spent up to now is       22.0 secs

     total energy              =     -23.05620483 Ry
     estimated scf accuracy    <       0.00000001 Ry

     iteration #  4     ecut=    40.00 Ry     beta= 0.70
     CG style diagonalization
     ethr =  1.27E-10,  avg # of iterations =  3.9

     total cpu time spent up to now is       24.1 secs

     End of self-consistent calculation

     Number of k-points >= 100: set verbosity='high' to print the bands.

     highest occupied level (ev):    13.6516

!    total energy              =     -23.05620483 Ry
     estimated scf accuracy    <          9.1E-11 Ry

     The total energy is the sum of the following terms:
     one-electron contribution =       8.24636544 Ry
     hartree contribution      =       1.89188262 Ry
     xc contribution           =      -7.38925325 Ry
     ewald contribution        =     -25.80519964 Ry

     convergence has been achieved in   4 iterations

     Forces acting on atoms (cartesian axes, Ry/au):

     atom    1 type  1   force =    -0.00371147   -0.00123879    0.00260605
     atom    2 type  1   force =     0.00371147    0.00123879   -0.00260605

     Total force =     0.006648     Total SCF correction =     0.000011


     Computing stress (Cartesian axis) and pressure

          total   stress  (Ry/bohr**3)                   (kbar)     P=      -12.40
   0.00001295   0.00011431   0.00006335            1.91       16.82        9.32
   0.00011431   0.00001318  -0.00005015           16.82        1.94       -7.38
   0.00006335  -0.00005015  -0.00027901            9.32       -7.38      -41.04

     Energy error            =      2.5E-05 Ry
     Gradient error          =      3.7E-03 Ry/Bohr

     number of scf cycles    =   2
     number of bfgs steps    =   1

     energy             old  =     -23.0561803252 Ry
     energy             new  =     -23.0562048342 Ry

     CASE: energy            _new < energy            _old

     new trust radius        =       0.0029448654 bohr
     new conv_thr            =            1.0E-10 Ry


ATOMIC_POSITIONS (alat)
C             0.0005850284        0.0001657301       -0.0004214846
C             0.2494149716        0.2498342699        0.2504214846



     Writing config-only to output data dir ./Diamond.save/
     NEW-OLD atomic charge density approx. for the potential

     total cpu time spent up to now is       24.7 secs

     Self-consistent Calculation

     iteration #  1     ecut=    40.00 Ry     beta= 0.70
     CG style diagonalization
     c_bands:  1 eigenvalues not converged
     c_bands:  1 eigenvalues not converged
     c_bands:  1 eigenvalues not converged
     c_bands:  1 eigenvalues not converged
     c_bands:  1 eigenvalues not converged
     ethr =  1.00E-06,  avg # of iterations =  4.5

     Threshold (ethr) on eigenvalues was too large:
     Diagonalizing with lowered threshold

     CG style diagonalization
     c_bands:  1 eigenvalues not converged
     c_bands:  1 eigenvalues not converged
     c_bands:  1 eigenvalues not converged
     c_bands:  2 eigenvalues not converged
     c_bands:  1 eigenvalues not converged
     c_bands:  1 eigenvalues not converged
     c_bands:  1 eigenvalues not converged
     c_bands:  1 eigenvalues not converged
     c_bands:  2 eigenvalues not converged
     ethr =  2.50E-08,  avg # of iterations =  5.0

     total cpu time spent up to now is       29.6 secs

     total energy              =     -23.05621856 Ry
     estimated scf accuracy    <       0.00000170 Ry

     iteration #  2     ecut=    40.00 Ry     beta= 0.70
     CG style diagonalization
     ethr =  2.13E-08,  avg # of iterations =  3.4

     total cpu time spent up to now is       31.5 secs

     total energy              =     -23.05621878 Ry
     estimated scf accuracy    <       0.00000003 Ry

     iteration #  3     ecut=    40.00 Ry     beta= 0.70
     CG style diagonalization
     ethr =  3.97E-10,  avg # of iterations =  3.9

     total cpu time spent up to now is       33.6 secs

     total energy              =     -23.05621879 Ry
     estimated scf accuracy    <          1.6E-09 Ry

     iteration #  4     ecut=    40.00 Ry     beta= 0.70
     CG style diagonalization
     ethr =  2.01E-11,  avg # of iterations =  3.8

     total cpu time spent up to now is       35.7 secs

     End of self-consistent calculation

     Number of k-points >= 100: set verbosity='high' to print the bands.

     highest occupied level (ev):    13.6122

!    total energy              =     -23.05621879 Ry
     estimated scf accuracy    <          3.4E-11 Ry

     The total energy is the sum of the following terms:
     one-electron contribution =       8.24624855 Ry
     hartree contribution      =       1.89192687 Ry
     xc contribution           =      -7.38926224 Ry
     ewald contribution        =     -25.80513197 Ry

     convergence has been achieved in   4 iterations

     Forces acting on atoms (cartesian axes, Ry/au):

     atom    1 type  1   force =    -0.00001634    0.00000572    0.00003531
     atom    2 type  1   force =     0.00001634   -0.00000572   -0.00003531

     Total force =     0.000056     Total SCF correction =     0.000007
     SCF correction compared to forces is large: reduce conv_thr to get better values


     Computing stress (Cartesian axis) and pressure

          total   stress  (Ry/bohr**3)                   (kbar)     P=      -12.40
   0.00001307   0.00012053   0.00005967            1.92       17.73        8.78
   0.00012053   0.00001307  -0.00005953           17.73        1.92       -8.76
   0.00005967  -0.00005953  -0.00027893            8.78       -8.76      -41.03

     Energy error            =      1.4E-05 Ry
     Gradient error          =      3.5E-05 Ry/Bohr

     bfgs converged in   3 scf cycles and   2 bfgs steps
     (criteria: energy <  1.0E-04 Ry, force <  1.0E-03 Ry/Bohr)

     End of BFGS Geometry Optimization

     Final energy             =     -23.0562187926 Ry

     File ./Diamond.bfgs deleted, as requested
Begin final coordinates

ATOMIC_POSITIONS (alat)
C             0.0005850284        0.0001657301       -0.0004214846
C             0.2494149716        0.2498342699        0.2504214846
End final coordinates



     Writing all to output data dir ./Diamond.save/
 
     init_run     :      1.06s CPU      1.11s WALL (       1 calls)
     electrons    :     27.12s CPU     32.99s WALL (       3 calls)
     update_pot   :      0.05s CPU      0.05s WALL (       2 calls)
     forces       :      0.22s CPU      0.23s WALL (       3 calls)
     stress       :      1.13s CPU      1.15s WALL (       3 calls)

     Called by init_run:
     wfcinit      :      0.74s CPU      0.77s WALL (       1 calls)
     potinit      :      0.01s CPU      0.01s WALL (       1 calls)
     hinit0       :      0.29s CPU      0.31s WALL (       1 calls)

     Called by electrons:
     c_bands      :     24.31s CPU     29.96s WALL (      15 calls)
     sum_band     :      2.69s CPU      2.84s WALL (      15 calls)
     v_of_rho     :      0.04s CPU      0.04s WALL (      17 calls)
     newd         :      0.07s CPU      0.07s WALL (      17 calls)
     mix_rho      :      0.01s CPU      0.01s WALL (      15 calls)

     Called by c_bands:
     init_us_2    :      0.77s CPU      0.98s WALL (    4144 calls)
     init_us_2:cp :      0.72s CPU      0.92s WALL (    4144 calls)
     ccgdiagg     :     19.38s CPU     21.68s WALL (    1680 calls)
     wfcrot       :      4.44s CPU      4.84s WALL (    1344 calls)

     Called by *cgdiagg:
     h_psi        :     19.56s CPU     21.66s WALL (   24062 calls)
     s_psi        :      0.89s CPU      1.04s WALL (   46780 calls)

     Called by h_psi:
     h_psi:calbec :      0.82s CPU      0.90s WALL (   24062 calls)
     vloc_psi     :     17.30s CPU     19.13s WALL (   24062 calls)
     add_vuspsi   :      0.49s CPU      0.57s WALL (   24062 calls)
     hs_1psi      :     17.09s CPU     19.04s WALL (   22718 calls)
     s_1psi       :      1.51s CPU      1.70s WALL (   22718 calls)

     General routines
     calbec       :      1.00s CPU      1.15s WALL (   50140 calls)
     fft          :      0.03s CPU      0.05s WALL (      95 calls)
     ffts         :      0.00s CPU      0.00s WALL (      15 calls)
     fftw         :     17.61s CPU     19.40s WALL (   63804 calls)
 
     Parallel routines
 
     PWSCF        :     30.12s CPU     36.94s WALL

 
   This run was terminated on:  20:52:27  14Mar2022            

=------------------------------------------------------------------------------=
   JOB DONE.
=------------------------------------------------------------------------------=
