
     Program PWSCF v.7.0 starts on 14Mar2022 at 23:26: 3 

     This program is part of the open-source Quantum ESPRESSO suite
     for quantum simulation of materials; please cite
         "P. Giannozzi et al., J. Phys.:Condens. Matter 21 395502 (2009);
         "P. Giannozzi et al., J. Phys.:Condens. Matter 29 465901 (2017);
         "P. Giannozzi et al., J. Chem. Phys. 152 154105 (2020);
          URL http://www.quantum-espresso.org", 
     in publications or presentations arising from this work. More details at
     http://www.quantum-espresso.org/quote

     Parallel version (MPI), running on     1 processors

     MPI processes distributed on     1 nodes
     90866 MiB available memory on the printing compute node when the environment starts
 
     Waiting for input...
     Reading input from standard input
Warning: card &CELL ignored
Warning: card  CELL_DYNAMICS = 'BFGS', ignored
Warning: card  PRESS=0.1D0, ignored
Warning: card / ignored
     Message from routine read_cards :
     DEPRECATED: no units specified in ATOMIC_POSITIONS card
     Message from routine read_cards :
     ATOMIC_POSITIONS: units set to alat

     Current dimensions of program PWSCF are:
     Max number of different atomic species (ntypx) = 10
     Max number of k-points (npk) =  40000
     Max angular momentum in pseudopotentials (lmaxx) =  4
     Message from routine setup:
     using ibrav=0 with symmetry is DISCOURAGED, use correct ibrav instead

     Subspace diagonalization in iterative solution of the eigenvalue problem:
     a serial algorithm will be used

 
     G-vector sticks info
     --------------------
     sticks:   dense  smooth     PW     G-vecs:    dense   smooth      PW
     Sum         249     249     85                 2581     2581     535
 
     Using Slab Decomposition
 


     bravais-lattice index     =            0
     lattice parameter (alat)  =       6.6720  a.u.
     unit-cell volume          =      74.2439 (a.u.)^3
     number of atoms/cell      =            2
     number of atomic types    =            1
     number of electrons       =         8.00
     number of Kohn-Sham states=            4
     kinetic-energy cutoff     =      40.0000  Ry
     charge density cutoff     =     160.0000  Ry
     scf convergence threshold =      1.0E-08
     mixing beta               =       0.7000
     number of iterations used =            8  plain     mixing
     energy convergence thresh.=      1.0E-04
     force convergence thresh. =      1.0E-03
     Exchange-correlation= SLA  PZ   NOGX NOGC
                           (   1   1   0   0   0   0   0)
     nstep                     =           50


     celldm(1)=   6.672000  celldm(2)=   0.000000  celldm(3)=   0.000000
     celldm(4)=   0.000000  celldm(5)=   0.000000  celldm(6)=   0.000000

     crystal axes: (cart. coord. in units of alat)
               a(1) = (  -0.503000   0.000000   0.494000 )  
               a(2) = (   0.000000   0.503000   0.494000 )  
               a(3) = (  -0.503000   0.503000   0.000000 )  

     reciprocal axes: (cart. coord. in units 2 pi/alat)
               b(1) = ( -0.994036 -0.994036  1.012146 )  
               b(2) = (  0.994036  0.994036  1.012146 )  
               b(3) = ( -0.994036  0.994036 -1.012146 )  


     PseudoPot. # 1 for C  read from file:
     ./C_LDA.UPF
     MD5 check sum: 407c1fe918d93b14b177d5600f28733c
     Pseudo is Ultrasoft + core correction, Zval =  4.0
     Generated by new atomic code, or converted to UPF format
     Using radial grid of  721 points,  4 beta functions with: 
                l(1) =   0
                l(2) =   0
                l(3) =   1
                l(4) =   1
     Q(r) pseudized with  8 coefficients,  rinner =    1.100   1.100   1.100


     atomic species   valence    mass     pseudopotential
        C              4.00    12.01100     C ( 1.00)

      2 Sym. Ops. (no inversion) found



   Cartesian axes

     site n.     atom                  positions (alat units)
         1           C   tau(   1) = (   0.0000000   0.0000000   0.0000000  )
         2           C   tau(   2) = (   0.2500000   0.2500000   0.2500000  )

     number of k points=    68
                       cart. coord. in units 2pi/alat
        k(    1) = (   0.0000000   0.0000000   0.0000000), wk =   0.0092593
        k(    2) = (  -0.1656726   0.1656726  -0.1686910), wk =   0.0370370
        k(    3) = (  -0.3313453   0.3313453  -0.3373819), wk =   0.0370370
        k(    4) = (   0.4970179  -0.4970179   0.5060729), wk =   0.0185185
        k(    5) = (   0.0000000   0.3313453  -0.0000000), wk =   0.0370370
        k(    6) = (  -0.1656726   0.4970179  -0.1686910), wk =   0.0370370
        k(    7) = (   0.6626905  -0.3313453   0.6747638), wk =   0.0370370
        k(    8) = (   0.4970179  -0.1656726   0.5060729), wk =   0.0370370
        k(    9) = (   0.3313453  -0.0000000   0.3373819), wk =   0.0370370
        k(   10) = (   0.0000000   0.6626905  -0.0000000), wk =   0.0370370
        k(   11) = (   0.8283632  -0.1656726   0.8434548), wk =   0.0370370
        k(   12) = (   0.6626905  -0.0000000   0.6747638), wk =   0.0370370
        k(   13) = (   0.0000000  -0.9940358   0.0000000), wk =   0.0185185
        k(   14) = (   0.0000000   0.0000000   0.3373819), wk =   0.0185185
        k(   15) = (  -0.3313453   0.3313453  -0.0000000), wk =   0.0185185
        k(   16) = (   0.4970179  -0.4970179   0.8434548), wk =   0.0370370
        k(   17) = (   0.3313453  -0.3313453   0.6747638), wk =   0.0370370
        k(   18) = (   0.1656726  -0.1656726   0.5060729), wk =   0.0370370
        k(   19) = (   0.6626905  -0.3313453   1.0121457), wk =   0.0370370
        k(   20) = (   0.4970179  -0.1656726   0.8434548), wk =   0.0370370
        k(   21) = (   0.3313453  -0.0000000   0.6747638), wk =   0.0370370
        k(   22) = (  -0.9940358  -0.3313453  -0.6747638), wk =   0.0370370
        k(   23) = (  -0.3313453  -0.9940358   0.0000000), wk =   0.0370370
        k(   24) = (  -0.8283632  -0.1656726  -0.5060729), wk =   0.0185185
        k(   25) = (  -0.0000000  -0.9940358   0.3373819), wk =   0.0370370
        k(   26) = (   0.0000000   0.0000000   0.6747638), wk =   0.0185185
        k(   27) = (   0.3313453  -0.3313453   1.0121457), wk =   0.0185185
        k(   28) = (   0.1656726  -0.1656726   0.8434548), wk =   0.0370370
        k(   29) = (  -0.6626905  -0.9940358   0.0000000), wk =   0.0370370
        k(   30) = (   0.0000000   0.0000000  -1.0121457), wk =   0.0092593
        k(   31) = (   0.1656726   0.1656726   0.1686910), wk =   0.0185185
        k(   32) = (  -0.1656726  -0.1656726   0.1686910), wk =   0.0185185
        k(   33) = (   0.3313453   0.3313453   0.3373819), wk =   0.0185185
        k(   34) = (  -0.3313453  -0.3313453   0.3373819), wk =   0.0185185
        k(   35) = (  -0.4970179  -0.4970179  -0.5060729), wk =   0.0092593
        k(   36) = (   0.4970179   0.4970179  -0.5060729), wk =   0.0092593
        k(   37) = (   0.1656726   0.4970179   0.1686910), wk =   0.0370370
        k(   38) = (  -0.1656726  -0.4970179   0.1686910), wk =   0.0370370
        k(   39) = (   0.4970179  -0.1656726   0.1686910), wk =   0.0370370
        k(   40) = (  -0.6626905  -0.3313453  -0.6747638), wk =   0.0370370
        k(   41) = (   0.6626905   0.3313453  -0.6747638), wk =   0.0370370
        k(   42) = (  -0.3313453   0.6626905  -0.6747638), wk =   0.0370370
        k(   43) = (  -0.4970179  -0.1656726  -0.5060729), wk =   0.0370370
        k(   44) = (   0.4970179   0.1656726  -0.5060729), wk =   0.0370370
        k(   45) = (  -0.1656726   0.4970179  -0.5060729), wk =   0.0370370
        k(   46) = (   0.3313453   0.0000000  -0.3373819), wk =   0.0370370
        k(   47) = (  -0.8283632  -0.1656726  -0.8434548), wk =   0.0370370
        k(   48) = (   0.8283632   0.1656726  -0.8434548), wk =   0.0370370
        k(   49) = (  -0.1656726   0.8283632  -0.8434548), wk =   0.0370370
        k(   50) = (   0.6626905   0.0000000  -0.6747638), wk =   0.0370370
        k(   51) = (   0.3313453   0.3313453   0.0000000), wk =   0.0185185
        k(   52) = (  -0.4970179  -0.4970179  -0.8434548), wk =   0.0185185
        k(   53) = (   0.4970179   0.4970179  -0.8434548), wk =   0.0185185
        k(   54) = (  -0.3313453  -0.3313453  -0.6747638), wk =   0.0185185
        k(   55) = (   0.3313453   0.3313453  -0.6747638), wk =   0.0185185
        k(   56) = (  -0.1656726  -0.1656726  -0.5060729), wk =   0.0185185
        k(   57) = (   0.1656726   0.1656726  -0.5060729), wk =   0.0185185
        k(   58) = (  -0.6626905  -0.3313453  -1.0121457), wk =   0.0370370
        k(   59) = (  -0.4970179  -0.1656726  -0.8434548), wk =   0.0370370
        k(   60) = (   0.4970179   0.1656726  -0.8434548), wk =   0.0370370
        k(   61) = (  -0.1656726   0.4970179  -0.8434548), wk =   0.0370370
        k(   62) = (   0.3313453   0.0000000  -0.6747638), wk =   0.0370370
        k(   63) = (   0.9940358  -0.3313453   0.6747638), wk =   0.0370370
        k(   64) = (   0.8283632  -0.1656726   0.5060729), wk =   0.0370370
        k(   65) = (  -0.1656726  -0.8283632   0.5060729), wk =   0.0185185
        k(   66) = (  -0.3313453  -0.3313453  -1.0121457), wk =   0.0185185
        k(   67) = (  -0.1656726  -0.1656726  -0.8434548), wk =   0.0185185
        k(   68) = (   0.1656726   0.1656726  -0.8434548), wk =   0.0185185

     Dense  grid:     2581 G-vectors     FFT dimensions: (  20,  20,  20)

     Estimated max dynamical RAM per process >       5.29 MB

     Initial potential from superposition of free atoms

     starting charge       7.9999, renormalised to       8.0000
     Starting wfcs are    8 randomized atomic wfcs

     total cpu time spent up to now is        1.2 secs

     Self-consistent Calculation

     iteration #  1     ecut=    40.00 Ry     beta= 0.70
     CG style diagonalization
     ethr =  1.00E-02,  avg # of iterations =  3.0

     total cpu time spent up to now is        2.3 secs

     total energy              =     -23.03849657 Ry
     estimated scf accuracy    <       0.14170537 Ry

     iteration #  2     ecut=    40.00 Ry     beta= 0.70
     CG style diagonalization
     ethr =  1.77E-03,  avg # of iterations =  3.6

     total cpu time spent up to now is        3.4 secs

     total energy              =     -23.05500567 Ry
     estimated scf accuracy    <       0.00145800 Ry

     iteration #  3     ecut=    40.00 Ry     beta= 0.70
     CG style diagonalization
     ethr =  1.82E-05,  avg # of iterations =  4.0

     total cpu time spent up to now is        4.7 secs

     total energy              =     -23.05548925 Ry
     estimated scf accuracy    <       0.00004828 Ry

     iteration #  4     ecut=    40.00 Ry     beta= 0.70
     CG style diagonalization
     ethr =  6.03E-07,  avg # of iterations =  4.0

     total cpu time spent up to now is        6.0 secs

     total energy              =     -23.05550715 Ry
     estimated scf accuracy    <       0.00000220 Ry

     iteration #  5     ecut=    40.00 Ry     beta= 0.70
     CG style diagonalization
     ethr =  2.75E-08,  avg # of iterations =  4.0

     total cpu time spent up to now is        7.3 secs

     total energy              =     -23.05550766 Ry
     estimated scf accuracy    <       0.00000002 Ry

     iteration #  6     ecut=    40.00 Ry     beta= 0.70
     CG style diagonalization
     ethr =  2.76E-10,  avg # of iterations =  4.5

     total cpu time spent up to now is        8.7 secs

     End of self-consistent calculation

          k = 0.0000 0.0000 0.0000 (   331 PWs)   bands (ev):

    -8.0713  13.3952  13.6506  13.9096

          k =-0.1657 0.1657-0.1687 (   317 PWs)   bands (ev):

    -7.2899   9.7886  12.5498  12.7219

          k =-0.3313 0.3313-0.3374 (   311 PWs)   bands (ev):

    -4.9893   4.1165  11.1934  11.3880

          k = 0.4970-0.4970 0.5061 (   324 PWs)   bands (ev):

    -2.0386  -0.0871  10.6870  10.9038

          k = 0.0000 0.3313-0.0000 (   315 PWs)   bands (ev):

    -7.0427  10.9425  11.1141  11.4250

          k =-0.1657 0.4970-0.1687 (   319 PWs)   bands (ev):

    -5.2610   6.3405   9.8089  10.1238

          k = 0.6627-0.3313 0.6748 (   317 PWs)   bands (ev):

    -2.1729   1.4188   8.4920   9.6924

          k = 0.4970-0.1657 0.5061 (   317 PWs)   bands (ev):

    -3.2460   2.8872   7.7959  10.7422

          k = 0.3313-0.0000 0.3374 (   315 PWs)   bands (ev):

    -5.9886   7.8567   8.6456  12.3892

          k = 0.0000 0.6627-0.0000 (   319 PWs)   bands (ev):

    -4.0188   6.3975   8.2299   8.3134

          k = 0.8284-0.1657 0.8435 (   321 PWs)   bands (ev):

    -1.3835   3.3658   5.7652   7.9725

          k = 0.6627-0.0000 0.6748 (   318 PWs)   bands (ev):

    -0.3923   2.5607   3.8982   8.9647

          k = 0.0000-0.9940 0.0000 (   322 PWs)   bands (ev):

     0.7112   0.7469   7.2404   7.2949

          k = 0.0000 0.0000 0.3374 (   323 PWs)   bands (ev):

    -7.0043  10.7985  10.9627  11.6905

          k =-0.3313 0.3313-0.0000 (   321 PWs)   bands (ev):

    -6.0268   7.8825   8.8595  12.2167

          k = 0.4970-0.4970 0.8435 (   315 PWs)   bands (ev):

    -3.3149   3.0087   8.0109  10.5302

          k = 0.3313-0.3313 0.6748 (   316 PWs)   bands (ev):

    -2.0820   1.3401   8.7497   9.4873

          k = 0.1657-0.1657 0.5061 (   315 PWs)   bands (ev):

    -5.1860   6.2617   9.6297  10.3439

          k = 0.6627-0.3313 1.0121 (   320 PWs)   bands (ev):

    -3.0618   4.9520   6.2906   8.6763

          k = 0.4970-0.1657 0.8435 (   317 PWs)   bands (ev):

    -0.2336   1.7134   5.6692   7.6317

          k = 0.3313-0.0000 0.6748 (   319 PWs)   bands (ev):

    -2.9212   4.8852   6.0128   8.9011

          k =-0.9940-0.3313-0.6748 (   318 PWs)   bands (ev):

    -3.0281   4.8744   6.1256   8.7475

          k =-0.3313-0.9940 0.0000 (   322 PWs)   bands (ev):

     1.3263   1.3848   5.6477   5.7187

          k =-0.8284-0.1657-0.5061 (   314 PWs)   bands (ev):

    -0.2854   1.7201   5.5339   7.6265

          k =-0.0000-0.9940 0.3374 (   316 PWs)   bands (ev):

     1.3309   1.3797   5.5694   5.6298

          k = 0.0000 0.0000 0.6748 (   322 PWs)   bands (ev):

    -3.8718   6.7699   7.9662   8.0868

          k = 0.3313-0.3313 1.0121 (   319 PWs)   bands (ev):

    -0.4659   2.7718   4.0958   8.7153

          k = 0.1657-0.1657 0.8435 (   314 PWs)   bands (ev):

    -1.1816   3.5186   5.7200   7.7324

          k =-0.6627-0.9940 0.0000 (   322 PWs)   bands (ev):

     1.5173   1.6077   5.4245   5.5387

          k = 0.0000 0.0000-1.0121 (   310 PWs)   bands (ev):

     0.9871   1.0571   6.9388   7.0444

          k = 0.1657 0.1657 0.1687 (   317 PWs)   bands (ev):

    -7.2896   9.8486  12.3476  12.8488

          k =-0.1657-0.1657 0.1687 (   317 PWs)   bands (ev):

    -7.2892   9.9493  12.3742  12.6891

          k = 0.3313 0.3313 0.3374 (   311 PWs)   bands (ev):

    -4.9891   4.1462  10.9943  11.5506

          k =-0.3313-0.3313 0.3374 (   311 PWs)   bands (ev):

    -4.9891   4.2027  11.0460  11.4273

          k =-0.4970-0.4970-0.5061 (   324 PWs)   bands (ev):

    -2.0550  -0.0472  10.4871  11.0770

          k = 0.4970 0.4970-0.5061 (   324 PWs)   bands (ev):

    -2.0890   0.0328  10.5470  10.9620

          k = 0.1657 0.4970 0.1687 (   319 PWs)   bands (ev):

    -5.2606   6.3855   9.7333  10.1417

          k =-0.1657-0.4970 0.1687 (   319 PWs)   bands (ev):

    -5.2604   6.4542   9.7219  10.0714

          k = 0.4970-0.1657 0.1687 (   319 PWs)   bands (ev):

    -5.2612   6.3220   9.7204  10.2459

          k =-0.6627-0.3313-0.6748 (   317 PWs)   bands (ev):

    -2.1792   1.4524   8.4189   9.7346

          k = 0.6627 0.3313-0.6748 (   317 PWs)   bands (ev):

    -2.1929   1.5156   8.4337   9.6573

          k =-0.3313 0.6627-0.6748 (   317 PWs)   bands (ev):

    -2.1722   1.4132   8.5838   9.6006

          k =-0.4970-0.1657-0.5061 (   317 PWs)   bands (ev):

    -3.2474   2.9156   7.7464  10.7659

          k = 0.4970 0.1657-0.5061 (   317 PWs)   bands (ev):

    -3.2512   2.9759   7.7524  10.6778

          k =-0.1657 0.4970-0.5061 (   317 PWs)   bands (ev):

    -3.2464   2.8933   7.8712  10.6320

          k = 0.3313 0.0000-0.3374 (   315 PWs)   bands (ev):

    -5.9880   7.9419   8.6441  12.2576

          k =-0.8284-0.1657-0.8435 (   321 PWs)   bands (ev):

    -1.3859   3.4005   5.7243   7.9786

          k = 0.8284 0.1657-0.8435 (   321 PWs)   bands (ev):

    -1.3911   3.4388   5.7404   7.9205

          k =-0.1657 0.8284-0.8435 (   321 PWs)   bands (ev):

    -1.3822   3.3308   5.8594   7.9092

          k = 0.6627 0.0000-0.6748 (   318 PWs)   bands (ev):

    -0.4098   2.6102   3.9204   8.8928

          k = 0.3313 0.3313 0.0000 (   321 PWs)   bands (ev):

    -6.0255   8.0604   8.8464  11.9626

          k =-0.4970-0.4970-0.8435 (   315 PWs)   bands (ev):

    -3.3163   3.0475   8.1283  10.3251

          k = 0.4970 0.4970-0.8435 (   315 PWs)   bands (ev):

    -3.3194   3.1020   8.0512  10.3531

          k =-0.3313-0.3313-0.6748 (   316 PWs)   bands (ev):

    -2.0878   1.3650   8.8996   9.3098

          k = 0.3313 0.3313-0.6748 (   316 PWs)   bands (ev):

    -2.1035   1.4342   8.8045   9.3416

          k =-0.1657-0.1657-0.5061 (   315 PWs)   bands (ev):

    -5.1861   6.2760   9.4760  10.5026

          k = 0.1657 0.1657-0.5061 (   315 PWs)   bands (ev):

    -5.1857   6.3592   9.4979  10.3676

          k =-0.6627-0.3313-1.0121 (   320 PWs)   bands (ev):

    -3.0637   5.0913   6.2887   8.5071

          k =-0.4970-0.1657-0.8435 (   317 PWs)   bands (ev):

    -0.2546   1.7557   5.7551   7.5103

          k = 0.4970 0.1657-0.8435 (   317 PWs)   bands (ev):

    -0.2924   1.8531   5.7073   7.4914

          k =-0.1657 0.4970-0.8435 (   317 PWs)   bands (ev):

    -0.2355   1.7078   5.7623   7.5370

          k = 0.3313 0.0000-0.6748 (   319 PWs)   bands (ev):

    -2.9228   4.9548   6.0142   8.8120

          k = 0.9940-0.3313 0.6748 (   318 PWs)   bands (ev):

    -3.0295   4.9440   6.1265   8.6608

          k = 0.8284-0.1657 0.5061 (   314 PWs)   bands (ev):

    -0.2697   1.6642   5.6921   7.4997

          k =-0.1657-0.8284 0.5061 (   314 PWs)   bands (ev):

    -0.3254   1.8136   5.5639   7.5284

          k =-0.3313-0.3313-1.0121 (   319 PWs)   bands (ev):

    -0.4936   2.8704   4.1332   8.5762

          k =-0.1657-0.1657-0.8435 (   314 PWs)   bands (ev):

    -1.1822   3.4852   5.8687   7.6117

          k = 0.1657 0.1657-0.8435 (   314 PWs)   bands (ev):

    -1.1896   3.5700   5.7776   7.6187

     highest occupied level (ev):    13.9096

!    total energy              =     -23.05550768 Ry
     estimated scf accuracy    <          8.1E-11 Ry

     The total energy is the sum of the following terms:
     one-electron contribution =       8.28999304 Ry
     hartree contribution      =       1.88753792 Ry
     xc contribution           =      -7.39537439 Ry
     ewald contribution        =     -25.83766426 Ry

     convergence has been achieved in   6 iterations

     Forces acting on atoms (cartesian axes, Ry/au):

     atom    1 type  1   force =    -0.00769639   -0.00769639    0.01608395
     atom    2 type  1   force =     0.00769639    0.00769639   -0.01608395

     Total force =     0.027465     Total SCF correction =     0.000003


     Computing stress (Cartesian axis) and pressure

          total   stress  (Ry/bohr**3)                   (kbar)     P=        5.29
  -0.00034602  -0.00004478   0.00001838          -50.90       -6.59        2.70
  -0.00004478  -0.00034602   0.00001838           -6.59      -50.90        2.70
   0.00001838   0.00001838   0.00079993            2.70        2.70      117.67


     BFGS Geometry Optimization
     Energy error            =      0.0E+00 Ry
     Gradient error          =      1.6E-02 Ry/Bohr

     number of scf cycles    =   1
     number of bfgs steps    =   0

     energy             new  =     -23.0555076816 Ry

     new trust radius        =       0.0194206628 bohr
     new conv_thr            =       0.0000000100 Ry


ATOMIC_POSITIONS (alat)
C            -0.0011535355       -0.0011535355        0.0024106635
C             0.2511535355        0.2511535355        0.2475893365



     Writing config-only to output data dir ./Diamond.save/
     NEW-OLD atomic charge density approx. for the potential

     total cpu time spent up to now is        9.1 secs

     Self-consistent Calculation

     iteration #  1     ecut=    40.00 Ry     beta= 0.70
     CG style diagonalization
     c_bands:  1 eigenvalues not converged
     c_bands:  1 eigenvalues not converged
     c_bands:  1 eigenvalues not converged
     ethr =  1.00E-06,  avg # of iterations =  6.9

     total cpu time spent up to now is       11.1 secs

     total energy              =     -23.05565379 Ry
     estimated scf accuracy    <       0.00007376 Ry

     iteration #  2     ecut=    40.00 Ry     beta= 0.70
     CG style diagonalization
     ethr =  9.22E-07,  avg # of iterations =  3.4

     total cpu time spent up to now is       12.3 secs

     total energy              =     -23.05566239 Ry
     estimated scf accuracy    <       0.00000130 Ry

     iteration #  3     ecut=    40.00 Ry     beta= 0.70
     CG style diagonalization
     ethr =  1.62E-08,  avg # of iterations =  3.8

     total cpu time spent up to now is       13.5 secs

     total energy              =     -23.05566276 Ry
     estimated scf accuracy    <       0.00000006 Ry

     iteration #  4     ecut=    40.00 Ry     beta= 0.70
     CG style diagonalization
     ethr =  8.09E-10,  avg # of iterations =  3.8

     total cpu time spent up to now is       14.7 secs

     End of self-consistent calculation

          k = 0.0000 0.0000 0.0000 (   331 PWs)   bands (ev):

    -8.0710  13.4495  13.6612  13.8434

          k =-0.1657 0.1657-0.1687 (   317 PWs)   bands (ev):

    -7.2892   9.8789  12.4058  12.7513

          k =-0.3313 0.3313-0.3374 (   311 PWs)   bands (ev):

    -4.9888   4.1636  11.0577  11.4656

          k = 0.4970-0.4970 0.5061 (   324 PWs)   bands (ev):

    -2.0652  -0.0224  10.5530  10.9941

          k = 0.0000 0.3313-0.0000 (   315 PWs)   bands (ev):

    -7.0424  10.9627  11.1294  11.3900

          k =-0.1657 0.4970-0.1687 (   319 PWs)   bands (ev):

    -5.2603   6.3981   9.7186  10.1473

          k = 0.6627-0.3313 0.6748 (   317 PWs)   bands (ev):

    -2.1827   1.4694   8.4719   9.6629

          k = 0.4970-0.1657 0.5061 (   317 PWs)   bands (ev):

    -3.2484   2.9369   7.7864  10.6856

          k = 0.3313-0.0000 0.3374 (   315 PWs)   bands (ev):

    -5.9879   7.9274   8.6406  12.2880

          k = 0.0000 0.6627-0.0000 (   319 PWs)   bands (ev):

    -4.0185   6.4012   8.2382   8.3015

          k = 0.8284-0.1657 0.8435 (   321 PWs)   bands (ev):

    -1.3865   3.3968   5.7728   7.9312

          k = 0.6627-0.0000 0.6748 (   318 PWs)   bands (ev):

    -0.4051   2.6006   3.9137   8.9097

          k = 0.0000-0.9940 0.0000 (   322 PWs)   bands (ev):

     0.7193   0.7404   7.2533   7.2809

          k = 0.0000 0.0000 0.3374 (   323 PWs)   bands (ev):

    -7.0041  10.8310  10.9398  11.6823

          k =-0.3313 0.3313-0.0000 (   321 PWs)   bands (ev):

    -6.0255   8.0279   8.8470  12.0130

          k = 0.4970-0.4970 0.8435 (   315 PWs)   bands (ev):

    -3.3168   3.0622   8.0740  10.3773

          k = 0.3313-0.3313 0.6748 (   316 PWs)   bands (ev):

    -2.0925   1.3882   8.8307   9.3592

          k = 0.1657-0.1657 0.5061 (   315 PWs)   bands (ev):

    -5.1856   6.3074   9.5155  10.4170

          k = 0.6627-0.3313 1.0121 (   320 PWs)   bands (ev):

    -3.0629   5.0651   6.2880   8.5408

          k = 0.4970-0.1657 0.8435 (   317 PWs)   bands (ev):

    -0.2660   1.7849   5.7550   7.4906

          k = 0.3313-0.0000 0.6748 (   319 PWs)   bands (ev):

    -2.9220   4.9408   6.0125   8.8329

          k =-0.9940-0.3313-0.6748 (   318 PWs)   bands (ev):

    -3.0288   4.9305   6.1243   8.6807

          k =-0.3313-0.9940 0.0000 (   322 PWs)   bands (ev):

     1.3388   1.3740   5.6633   5.7023

          k =-0.8284-0.1657-0.5061 (   314 PWs)   bands (ev):

    -0.2874   1.7102   5.6732   7.4878

          k =-0.0000-0.9940 0.3374 (   316 PWs)   bands (ev):

     1.3419   1.3705   5.5834   5.6147

          k = 0.0000 0.0000 0.6748 (   322 PWs)   bands (ev):

    -3.8715   6.7720   7.9910   8.0610

          k = 0.3313-0.3313 1.0121 (   319 PWs)   bands (ev):

    -0.4875   2.8521   4.1249   8.6042

          k = 0.1657-0.1657 0.8435 (   314 PWs)   bands (ev):

    -1.1846   3.5260   5.8029   7.6390

          k =-0.6627-0.9940 0.0000 (   322 PWs)   bands (ev):

     1.5350   1.5908   5.4475   5.5158

          k = 0.0000 0.0000-1.0121 (   310 PWs)   bands (ev):

     1.0007   1.0444   6.9602   7.0234

          k = 0.1657 0.1657 0.1687 (   317 PWs)   bands (ev):

    -7.2894   9.8386  12.5739  12.6345

          k =-0.1657-0.1657 0.1687 (   317 PWs)   bands (ev):

    -7.2897   9.7852  12.5586  12.7181

          k = 0.3313 0.3313 0.3374 (   311 PWs)   bands (ev):

    -4.9889   4.1437  11.2041  11.3445

          k =-0.3313-0.3313 0.3374 (   311 PWs)   bands (ev):

    -4.9889   4.1131  11.1750  11.4098

          k =-0.4970-0.4970-0.5061 (   324 PWs)   bands (ev):

    -2.0543  -0.0491  10.6958  10.8701

          k = 0.4970 0.4970-0.5061 (   324 PWs)   bands (ev):

    -2.0350  -0.0934  10.6621  10.9309

          k = 0.1657 0.4970 0.1687 (   319 PWs)   bands (ev):

    -5.2606   6.3678   9.7536  10.1515

          k =-0.1657-0.4970 0.1687 (   319 PWs)   bands (ev):

    -5.2607   6.3310   9.7805  10.1671

          k = 0.4970-0.1657 0.1687 (   319 PWs)   bands (ev):

    -5.2602   6.4085   9.7739  10.0733

          k =-0.6627-0.3313-0.6748 (   317 PWs)   bands (ev):

    -2.1784   1.4466   8.5206   9.6354

          k = 0.6627 0.3313-0.6748 (   317 PWs)   bands (ev):

    -2.1710   1.4124   8.5167   9.6714

          k =-0.3313 0.6627-0.6748 (   317 PWs)   bands (ev):

    -2.1831   1.4724   8.4288   9.7054

          k =-0.4970-0.1657-0.5061 (   317 PWs)   bands (ev):

    -3.2474   2.9178   7.8191  10.6703

          k = 0.4970 0.1657-0.5061 (   317 PWs)   bands (ev):

    -3.2454   2.8853   7.8176  10.7146

          k =-0.1657 0.4970-0.5061 (   317 PWs)   bands (ev):

    -3.2482   2.9335   7.7480  10.7420

          k = 0.3313 0.0000-0.3374 (   315 PWs)   bands (ev):

    -5.9882   7.8762   8.6487  12.3555

          k =-0.8284-0.1657-0.8435 (   321 PWs)   bands (ev):

    -1.3847   3.3734   5.8001   7.9273

          k = 0.8284 0.1657-0.8435 (   321 PWs)   bands (ev):

    -1.3820   3.3525   5.7933   7.9563

          k =-0.1657 0.8284-0.8435 (   321 PWs)   bands (ev):

    -1.3872   3.4165   5.7229   7.9630

          k = 0.6627 0.0000-0.6748 (   318 PWs)   bands (ev):

    -0.3956   2.5719   3.9046   8.9465

          k = 0.3313 0.3313 0.0000 (   321 PWs)   bands (ev):

    -6.0263   7.9173   8.8587  12.1654

          k =-0.4970-0.4970-0.8435 (   315 PWs)   bands (ev):

    -3.3159   3.0367   8.0067  10.4993

          k = 0.4970 0.4970-0.8435 (   315 PWs)   bands (ev):

    -3.3142   3.0073   8.0481  10.4837

          k =-0.3313-0.3313-0.6748 (   316 PWs)   bands (ev):

    -2.0885   1.3707   8.7486   9.4602

          k = 0.3313 0.3313-0.6748 (   316 PWs)   bands (ev):

    -2.0799   1.3332   8.7994   9.4425

          k =-0.1657-0.1657-0.5061 (   315 PWs)   bands (ev):

    -5.1856   6.2960   9.6127  10.3208

          k = 0.1657 0.1657-0.5061 (   315 PWs)   bands (ev):

    -5.1858   6.2511   9.6006  10.3926

          k =-0.6627-0.3313-1.0121 (   320 PWs)   bands (ev):

    -3.0617   4.9794   6.2915   8.6421

          k =-0.4970-0.1657-0.8435 (   317 PWs)   bands (ev):

    -0.2524   1.7560   5.7057   7.5635

          k = 0.4970 0.1657-0.8435 (   317 PWs)   bands (ev):

    -0.2306   1.7022   5.7332   7.5713

          k =-0.1657 0.4970-0.8435 (   317 PWs)   bands (ev):

    -0.2650   1.7880   5.7034   7.5425

          k = 0.3313 0.0000-0.6748 (   319 PWs)   bands (ev):

    -2.9212   4.9008   6.0161   8.8784

          k = 0.9940-0.3313 0.6748 (   318 PWs)   bands (ev):

    -3.0280   4.8908   6.1281   8.7250

          k = 0.8284-0.1657 0.5061 (   314 PWs)   bands (ev):

    -0.2980   1.7471   5.5771   7.5621

          k =-0.1657-0.8284 0.5061 (   314 PWs)   bands (ev):

    -0.2645   1.6586   5.6565   7.5402

          k =-0.3313-0.3313-1.0121 (   319 PWs)   bands (ev):

    -0.4707   2.7911   4.1038   8.6876

          k =-0.1657-0.1657-0.8435 (   314 PWs)   bands (ev):

    -1.1840   3.5443   5.7158   7.7107

          k = 0.1657 0.1657-0.8435 (   314 PWs)   bands (ev):

    -1.1800   3.4973   5.7660   7.7069

     highest occupied level (ev):    13.8434

!    total energy              =     -23.05566277 Ry
     estimated scf accuracy    <          4.3E-10 Ry

     The total energy is the sum of the following terms:
     one-electron contribution =       8.29024443 Ry
     hartree contribution      =       1.88744467 Ry
     xc contribution           =      -7.39535067 Ry
     ewald contribution        =     -25.83800120 Ry

     convergence has been achieved in   4 iterations

     Forces acting on atoms (cartesian axes, Ry/au):

     atom    1 type  1   force =     0.00437849    0.00437849   -0.00988530
     atom    2 type  1   force =    -0.00437849   -0.00437849    0.00988530

     Total force =     0.016496     Total SCF correction =     0.000022


     Computing stress (Cartesian axis) and pressure

          total   stress  (Ry/bohr**3)                   (kbar)     P=        4.88
  -0.00034923   0.00002827  -0.00001218          -51.37        4.16       -1.79
   0.00002827  -0.00034923  -0.00001218            4.16      -51.37       -1.79
  -0.00001218  -0.00001218   0.00079807           -1.79       -1.79      117.40

     Energy error            =      1.6E-04 Ry
     Gradient error          =      9.9E-03 Ry/Bohr

     number of scf cycles    =   2
     number of bfgs steps    =   1

     energy             old  =     -23.0555076816 Ry
     energy             new  =     -23.0556627705 Ry

     CASE: energy            _new < energy            _old

     new trust radius        =       0.0072857879 bohr
     new conv_thr            =       0.0000000002 Ry


ATOMIC_POSITIONS (alat)
C            -0.0007436467       -0.0007436467        0.0014852260
C             0.2507436467        0.2507436467        0.2485147740



     Writing config-only to output data dir ./Diamond.save/
     NEW-OLD atomic charge density approx. for the potential

     total cpu time spent up to now is       15.1 secs

     Self-consistent Calculation

     iteration #  1     ecut=    40.00 Ry     beta= 0.70
     CG style diagonalization
     c_bands:  1 eigenvalues not converged
     ethr =  1.00E-06,  avg # of iterations =  5.6

     total cpu time spent up to now is       16.9 secs

     total energy              =     -23.05574379 Ry
     estimated scf accuracy    <       0.00001040 Ry

     iteration #  2     ecut=    40.00 Ry     beta= 0.70
     CG style diagonalization
     ethr =  1.30E-07,  avg # of iterations =  3.7

     total cpu time spent up to now is       18.0 secs

     total energy              =     -23.05574586 Ry
     estimated scf accuracy    <       0.00000019 Ry

     iteration #  3     ecut=    40.00 Ry     beta= 0.70
     CG style diagonalization
     ethr =  2.41E-09,  avg # of iterations =  3.8

     total cpu time spent up to now is       19.3 secs

     total energy              =     -23.05574592 Ry
     estimated scf accuracy    <          8.9E-09 Ry

     iteration #  4     ecut=    40.00 Ry     beta= 0.70
     CG style diagonalization
     ethr =  1.11E-10,  avg # of iterations =  3.8

     total cpu time spent up to now is       20.5 secs

     End of self-consistent calculation

          k = 0.0000 0.0000 0.0000 (   331 PWs)   bands (ev):

    -8.0709  13.5589  13.5621  13.8323

          k =-0.1657 0.1657-0.1687 (   317 PWs)   bands (ev):

    -7.2893   9.8457  12.4903  12.7095

          k =-0.3313 0.3313-0.3374 (   311 PWs)   bands (ev):

    -4.9887   4.1459  11.1269  11.4181

          k = 0.4970-0.4970 0.5061 (   324 PWs)   bands (ev):

    -2.0546  -0.0471  10.6190  10.9442

          k = 0.0000 0.3313-0.0000 (   315 PWs)   bands (ev):

    -7.0423  10.9819  11.1272  11.3730

          k =-0.1657 0.4970-0.1687 (   319 PWs)   bands (ev):

    -5.2604   6.3764   9.7628  10.1287

          k = 0.6627-0.3313 0.6748 (   317 PWs)   bands (ev):

    -2.1785   1.4500   8.4861   9.6673

          k = 0.4970-0.1657 0.5061 (   317 PWs)   bands (ev):

    -3.2471   2.9182   7.7935  10.7026

          k = 0.3313-0.0000 0.3374 (   315 PWs)   bands (ev):

    -5.9879   7.9026   8.6447  12.3212

          k = 0.0000 0.6627-0.0000 (   319 PWs)   bands (ev):

    -4.0183   6.4032   8.2403   8.2972

          k = 0.8284-0.1657 0.8435 (   321 PWs)   bands (ev):

    -1.3848   3.3850   5.7722   7.9441

          k = 0.6627-0.0000 0.6748 (   318 PWs)   bands (ev):

    -0.3999   2.5864   3.9090   8.9279

          k = 0.0000-0.9940 0.0000 (   322 PWs)   bands (ev):

     0.7300   0.7303   7.2665   7.2670

          k = 0.0000 0.0000 0.3374 (   323 PWs)   bands (ev):

    -7.0040  10.8863  10.8880  11.6794

          k =-0.3313 0.3313-0.0000 (   321 PWs)   bands (ev):

    -6.0258   7.9722   8.8529  12.0902

          k = 0.4970-0.4970 0.8435 (   315 PWs)   bands (ev):

    -3.3157   3.0419   8.0504  10.4352

          k = 0.3313-0.3313 0.6748 (   316 PWs)   bands (ev):

    -2.0881   1.3699   8.8028   9.4051

          k = 0.1657-0.1657 0.5061 (   315 PWs)   bands (ev):

    -5.1856   6.2906   9.5628  10.3854

          k = 0.6627-0.3313 1.0121 (   320 PWs)   bands (ev):

    -3.0621   5.0218   6.2897   8.5921

          k = 0.4970-0.1657 0.8435 (   317 PWs)   bands (ev):

    -0.2531   1.7574   5.7242   7.5424

          k = 0.3313-0.0000 0.6748 (   319 PWs)   bands (ev):

    -2.9214   4.9208   6.0148   8.8554

          k =-0.9940-0.3313-0.6748 (   318 PWs)   bands (ev):

    -3.0282   4.9111   6.1262   8.7024

          k =-0.3313-0.9940 0.0000 (   322 PWs)   bands (ev):

     1.3565   1.3571   5.6822   5.6828

          k =-0.8284-0.1657-0.5061 (   314 PWs)   bands (ev):

    -0.2867   1.7160   5.6203   7.5385

          k =-0.0000-0.9940 0.3374 (   316 PWs)   bands (ev):

     1.3565   1.3569   5.5984   5.5989

          k = 0.0000 0.0000 0.6748 (   322 PWs)   bands (ev):

    -3.8714   6.7730   8.0252   8.0263

          k = 0.3313-0.3313 1.0121 (   319 PWs)   bands (ev):

    -0.4787   2.8212   4.1140   8.6467

          k = 0.1657-0.1657 0.8435 (   314 PWs)   bands (ev):

    -1.1830   3.5234   5.7715   7.6745

          k =-0.6627-0.9940 0.0000 (   322 PWs)   bands (ev):

     1.5626   1.5635   5.4812   5.4823

          k = 0.0000 0.0000-1.0121 (   310 PWs)   bands (ev):

     1.0223   1.0230   6.9914   6.9925

          k = 0.1657 0.1657 0.1687 (   317 PWs)   bands (ev):

    -7.2893   9.8464  12.4877  12.7113

          k =-0.1657-0.1657 0.1687 (   317 PWs)   bands (ev):

    -7.2893   9.8472  12.4879  12.7099

          k = 0.3313 0.3313 0.3374 (   311 PWs)   bands (ev):

    -4.9887   4.1462  11.1246  11.4200

          k =-0.3313-0.3313 0.3374 (   311 PWs)   bands (ev):

    -4.9887   4.1467  11.1251  11.4190

          k =-0.4970-0.4970-0.5061 (   324 PWs)   bands (ev):

    -2.0548  -0.0467  10.6168  10.9461

          k = 0.4970 0.4970-0.5061 (   324 PWs)   bands (ev):

    -2.0551  -0.0460  10.6173  10.9452

          k = 0.1657 0.4970 0.1687 (   319 PWs)   bands (ev):

    -5.2603   6.3769   9.7622  10.1287

          k =-0.1657-0.4970 0.1687 (   319 PWs)   bands (ev):

    -5.2603   6.3775   9.7619  10.1283

          k = 0.4970-0.1657 0.1687 (   319 PWs)   bands (ev):

    -5.2604   6.3762   9.7619  10.1298

          k =-0.6627-0.3313-0.6748 (   317 PWs)   bands (ev):

    -2.1786   1.4503   8.4853   9.6677

          k = 0.6627 0.3313-0.6748 (   317 PWs)   bands (ev):

    -2.1787   1.4509   8.4854   9.6671

          k =-0.3313 0.6627-0.6748 (   317 PWs)   bands (ev):

    -2.1785   1.4499   8.4868   9.6666

          k =-0.4970-0.1657-0.5061 (   317 PWs)   bands (ev):

    -3.2472   2.9185   7.7930  10.7028

          k = 0.4970 0.1657-0.5061 (   317 PWs)   bands (ev):

    -3.2472   2.9191   7.7930  10.7021

          k =-0.1657 0.4970-0.5061 (   317 PWs)   bands (ev):

    -3.2471   2.9183   7.7941  10.7017

          k = 0.3313 0.0000-0.3374 (   315 PWs)   bands (ev):

    -5.9879   7.9034   8.6446  12.3202

          k =-0.8284-0.1657-0.8435 (   321 PWs)   bands (ev):

    -1.3848   3.3854   5.7717   7.9442

          k = 0.8284 0.1657-0.8435 (   321 PWs)   bands (ev):

    -1.3849   3.3858   5.7719   7.9437

          k =-0.1657 0.8284-0.8435 (   321 PWs)   bands (ev):

    -1.3848   3.3847   5.7730   7.9436

          k = 0.6627 0.0000-0.6748 (   318 PWs)   bands (ev):

    -0.4001   2.5868   3.9091   8.9273

          k = 0.3313 0.3313 0.0000 (   321 PWs)   bands (ev):

    -6.0257   7.9739   8.8527  12.0877

          k =-0.4970-0.4970-0.8435 (   315 PWs)   bands (ev):

    -3.3157   3.0423   8.0515  10.4332

          k = 0.4970 0.4970-0.8435 (   315 PWs)   bands (ev):

    -3.3158   3.0428   8.0509  10.4335

          k =-0.3313-0.3313-0.6748 (   316 PWs)   bands (ev):

    -2.0882   1.3702   8.8042   9.4034

          k = 0.3313 0.3313-0.6748 (   316 PWs)   bands (ev):

    -2.0883   1.3708   8.8034   9.4037

          k =-0.1657-0.1657-0.5061 (   315 PWs)   bands (ev):

    -5.1856   6.2908   9.5612  10.3869

          k = 0.1657 0.1657-0.5061 (   315 PWs)   bands (ev):

    -5.1855   6.2915   9.5614  10.3858

          k =-0.6627-0.3313-1.0121 (   320 PWs)   bands (ev):

    -3.0621   5.0232   6.2897   8.5905

          k =-0.4970-0.1657-0.8435 (   317 PWs)   bands (ev):

    -0.2533   1.7579   5.7250   7.5412

          k = 0.4970 0.1657-0.8435 (   317 PWs)   bands (ev):

    -0.2536   1.7587   5.7246   7.5411

          k =-0.1657 0.4970-0.8435 (   317 PWs)   bands (ev):

    -0.2531   1.7574   5.7250   7.5416

          k = 0.3313 0.0000-0.6748 (   319 PWs)   bands (ev):

    -2.9214   4.9215   6.0147   8.8547

          k = 0.9940-0.3313 0.6748 (   318 PWs)   bands (ev):

    -3.0282   4.9117   6.1262   8.7017

          k = 0.8284-0.1657 0.5061 (   314 PWs)   bands (ev):

    -0.2866   1.7154   5.6218   7.5373

          k =-0.1657-0.8284 0.5061 (   314 PWs)   bands (ev):

    -0.2871   1.7168   5.6206   7.5377

          k =-0.3313-0.3313-1.0121 (   319 PWs)   bands (ev):

    -0.4789   2.8222   4.1144   8.6453

          k =-0.1657-0.1657-0.8435 (   314 PWs)   bands (ev):

    -1.1830   3.5231   5.7729   7.6734

          k = 0.1657 0.1657-0.8435 (   314 PWs)   bands (ev):

    -1.1831   3.5239   5.7721   7.6734

     highest occupied level (ev):    13.8323

!    total energy              =     -23.05574592 Ry
     estimated scf accuracy    <          2.0E-11 Ry

     The total energy is the sum of the following terms:
     one-electron contribution =       8.29037478 Ry
     hartree contribution      =       1.88740397 Ry
     xc contribution           =      -7.39534149 Ry
     ewald contribution        =     -25.83818318 Ry

     convergence has been achieved in   4 iterations

     Forces acting on atoms (cartesian axes, Ry/au):

     atom    1 type  1   force =    -0.00006750   -0.00006750    0.00015987
     atom    2 type  1   force =     0.00006750    0.00006750   -0.00015987

     Total force =     0.000263     Total SCF correction =     0.000004


     Computing stress (Cartesian axis) and pressure

          total   stress  (Ry/bohr**3)                   (kbar)     P=        4.71
  -0.00035071  -0.00000050   0.00000021          -51.59       -0.07        0.03
  -0.00000050  -0.00035071   0.00000021           -0.07      -51.59        0.03
   0.00000021   0.00000021   0.00079744            0.03        0.03      117.31

     Energy error            =      8.3E-05 Ry
     Gradient error          =      1.6E-04 Ry/Bohr

     bfgs converged in   3 scf cycles and   2 bfgs steps
     (criteria: energy <  1.0E-04 Ry, force <  1.0E-03 Ry/Bohr)

     End of BFGS Geometry Optimization

     Final energy             =     -23.0557459218 Ry

     File ./Diamond.bfgs deleted, as requested
Begin final coordinates

ATOMIC_POSITIONS (alat)
C            -0.0007436467       -0.0007436467        0.0014852260
C             0.2507436467        0.2507436467        0.2485147740
End final coordinates



     Writing all to output data dir ./Diamond.save/
 
     init_run     :      0.77s CPU      0.81s WALL (       1 calls)
     electrons    :     15.38s CPU     18.54s WALL (       3 calls)
     update_pot   :      0.02s CPU      0.03s WALL (       2 calls)
     forces       :      0.12s CPU      0.14s WALL (       3 calls)
     stress       :      0.69s CPU      0.70s WALL (       3 calls)

     Called by init_run:
     wfcinit      :      0.47s CPU      0.49s WALL (       1 calls)
     potinit      :      0.00s CPU      0.01s WALL (       1 calls)
     hinit0       :      0.28s CPU      0.30s WALL (       1 calls)

     Called by electrons:
     c_bands      :     13.72s CPU     16.73s WALL (      14 calls)
     sum_band     :      1.54s CPU      1.63s WALL (      14 calls)
     v_of_rho     :      0.04s CPU      0.04s WALL (      17 calls)
     newd         :      0.06s CPU      0.07s WALL (      17 calls)
     mix_rho      :      0.01s CPU      0.01s WALL (      14 calls)

     Called by c_bands:
     init_us_2    :      0.47s CPU      0.56s WALL (    2380 calls)
     init_us_2:cp :      0.43s CPU      0.53s WALL (    2380 calls)
     ccgdiagg     :     10.82s CPU     12.07s WALL (     952 calls)
     wfcrot       :      2.74s CPU      2.94s WALL (     816 calls)

     Called by *cgdiagg:
     h_psi        :     11.16s CPU     12.28s WALL (   13571 calls)
     s_psi        :      0.50s CPU      0.59s WALL (   26326 calls)

     Called by h_psi:
     h_psi:calbec :      0.46s CPU      0.51s WALL (   13571 calls)
     vloc_psi     :      9.89s CPU     10.86s WALL (   13571 calls)
     add_vuspsi   :      0.28s CPU      0.33s WALL (   13571 calls)
     hs_1psi      :      9.54s CPU     10.60s WALL (   12755 calls)
     s_1psi       :      0.85s CPU      0.95s WALL (   12755 calls)

     General routines
     calbec       :      0.58s CPU      0.66s WALL (   28298 calls)
     fft          :      0.03s CPU      0.05s WALL (      94 calls)
     ffts         :      0.00s CPU      0.00s WALL (      14 calls)
     fftw         :     10.06s CPU     11.02s WALL (   36390 calls)
 
     Parallel routines
 
     PWSCF        :     17.42s CPU     21.33s WALL

 
   This run was terminated on:  23:26:24  14Mar2022            

=------------------------------------------------------------------------------=
   JOB DONE.
=------------------------------------------------------------------------------=
