
     Program PWSCF v.7.0 starts on 14Mar2022 at 19: 5:51 

     This program is part of the open-source Quantum ESPRESSO suite
     for quantum simulation of materials; please cite
         "P. Giannozzi et al., J. Phys.:Condens. Matter 21 395502 (2009);
         "P. Giannozzi et al., J. Phys.:Condens. Matter 29 465901 (2017);
         "P. Giannozzi et al., J. Chem. Phys. 152 154105 (2020);
          URL http://www.quantum-espresso.org", 
     in publications or presentations arising from this work. More details at
     http://www.quantum-espresso.org/quote

     Parallel version (MPI), running on     1 processors

     MPI processes distributed on     1 nodes
     90092 MiB available memory on the printing compute node when the environment starts
 
     Waiting for input...
     Reading input from standard input
Warning: card &CELL ignored
Warning: card  CELL_DYNAMICS = 'BFGS', ignored
Warning: card  PRESS=0.1D0, ignored
Warning: card / ignored
     Message from routine read_cards :
     DEPRECATED: no units specified in ATOMIC_POSITIONS card
     Message from routine read_cards :
     ATOMIC_POSITIONS: units set to alat

     Current dimensions of program PWSCF are:
     Max number of different atomic species (ntypx) = 10
     Max number of k-points (npk) =  40000
     Max angular momentum in pseudopotentials (lmaxx) =  4
     Message from routine setup:
     using ibrav=0 with symmetry is DISCOURAGED, use correct ibrav instead

     Subspace diagonalization in iterative solution of the eigenvalue problem:
     a serial algorithm will be used

 
     G-vector sticks info
     --------------------
     sticks:   dense  smooth     PW     G-vecs:    dense   smooth      PW
     Sum         253     253     85                 2637     2637     531
 
     Using Slab Decomposition
 


     bravais-lattice index     =            0
     lattice parameter (alat)  =       6.6780  a.u.
     unit-cell volume          =      75.3495 (a.u.)^3
     number of atoms/cell      =            2
     number of atomic types    =            1
     number of electrons       =         8.00
     number of Kohn-Sham states=            4
     kinetic-energy cutoff     =      40.0000  Ry
     charge density cutoff     =     160.0000  Ry
     scf convergence threshold =      1.0E-08
     mixing beta               =       0.7000
     number of iterations used =            8  plain     mixing
     energy convergence thresh.=      1.0E-04
     force convergence thresh. =      1.0E-03
     Exchange-correlation= SLA  PZ   NOGX NOGC
                           (   1   1   0   0   0   0   0)
     nstep                     =           50


     celldm(1)=   6.678000  celldm(2)=   0.000000  celldm(3)=   0.000000
     celldm(4)=   0.000000  celldm(5)=   0.000000  celldm(6)=   0.000000

     crystal axes: (cart. coord. in units of alat)
               a(1) = (  -0.502000   0.000000   0.502000 )  
               a(2) = (   0.000000   0.502000   0.502000 )  
               a(3) = (  -0.502000   0.502000   0.000000 )  

     reciprocal axes: (cart. coord. in units 2 pi/alat)
               b(1) = ( -0.996016 -0.996016  0.996016 )  
               b(2) = (  0.996016  0.996016  0.996016 )  
               b(3) = ( -0.996016  0.996016 -0.996016 )  


     PseudoPot. # 1 for C  read from file:
     ./C_LDA.UPF
     MD5 check sum: 407c1fe918d93b14b177d5600f28733c
     Pseudo is Ultrasoft + core correction, Zval =  4.0
     Generated by new atomic code, or converted to UPF format
     Using radial grid of  721 points,  4 beta functions with: 
                l(1) =   0
                l(2) =   0
                l(3) =   1
                l(4) =   1
     Q(r) pseudized with  8 coefficients,  rinner =    1.100   1.100   1.100


     atomic species   valence    mass     pseudopotential
        C              4.00    12.01100     C ( 1.00)

      6 Sym. Ops. (no inversion) found



   Cartesian axes

     site n.     atom                  positions (alat units)
         1           C   tau(   1) = (   0.0000000   0.0000000   0.0000000  )
         2           C   tau(   2) = (   0.2500000   0.2500000   0.2500000  )

     number of k points=    32
                       cart. coord. in units 2pi/alat
        k(    1) = (   0.0000000   0.0000000   0.0000000), wk =   0.0092593
        k(    2) = (  -0.1660027   0.1660027  -0.1660027), wk =   0.0555556
        k(    3) = (  -0.3320053   0.3320053  -0.3320053), wk =   0.0555556
        k(    4) = (   0.4980080  -0.4980080   0.4980080), wk =   0.0277778
        k(    5) = (  -0.0000000   0.3320053  -0.0000000), wk =   0.0555556
        k(    6) = (  -0.1660027   0.4980080  -0.1660027), wk =   0.0555556
        k(    7) = (   0.6640106  -0.3320053   0.6640106), wk =   0.0555556
        k(    8) = (   0.4980080  -0.1660027   0.4980080), wk =   0.0555556
        k(    9) = (   0.3320053  -0.0000000   0.3320053), wk =   0.0555556
        k(   10) = (  -0.0000000   0.6640106  -0.0000000), wk =   0.0555556
        k(   11) = (   0.8300133  -0.1660027   0.8300133), wk =   0.0555556
        k(   12) = (   0.6640106  -0.0000000   0.6640106), wk =   0.0555556
        k(   13) = (   0.0000000  -0.9960159   0.0000000), wk =   0.0277778
        k(   14) = (   0.6640106  -0.3320053   0.9960159), wk =   0.1111111
        k(   15) = (   0.4980080  -0.1660027   0.8300133), wk =   0.1111111
        k(   16) = (  -0.3320053  -0.9960159   0.0000000), wk =   0.1111111
        k(   17) = (  -0.1660027  -0.1660027  -0.1660027), wk =   0.0185185
        k(   18) = (  -0.3320053  -0.3320053  -0.3320053), wk =   0.0185185
        k(   19) = (   0.4980080   0.4980080   0.4980080), wk =   0.0092593
        k(   20) = (   0.4980080   0.1660027  -0.1660027), wk =   0.1111111
        k(   21) = (  -0.4980080  -0.1660027  -0.1660027), wk =   0.0555556
        k(   22) = (  -0.3320053  -0.6640106   0.6640106), wk =   0.1111111
        k(   23) = (   0.3320053   0.6640106   0.6640106), wk =   0.0555556
        k(   24) = (  -0.1660027  -0.4980080   0.4980080), wk =   0.1111111
        k(   25) = (   0.1660027   0.4980080   0.4980080), wk =   0.0555556
        k(   26) = (  -0.0000000  -0.3320053   0.3320053), wk =   0.0555556
        k(   27) = (  -0.1660027  -0.8300133   0.8300133), wk =   0.1111111
        k(   28) = (   0.1660027   0.8300133   0.8300133), wk =   0.0555556
        k(   29) = (  -0.0000000  -0.6640106   0.6640106), wk =   0.0555556
        k(   30) = (  -0.3320053  -0.6640106   0.9960159), wk =   0.1111111
        k(   31) = (   0.1660027   0.4980080   0.8300133), wk =   0.0555556
        k(   32) = (  -0.8300133  -0.1660027   0.4980080), wk =   0.0555556

     Dense  grid:     2637 G-vectors     FFT dimensions: (  20,  20,  20)

     Estimated max dynamical RAM per process >       4.68 MB

     Initial potential from superposition of free atoms

     starting charge       7.9999, renormalised to       8.0000
     Starting wfcs are    8 randomized atomic wfcs

     total cpu time spent up to now is        0.9 secs

     Self-consistent Calculation

     iteration #  1     ecut=    40.00 Ry     beta= 0.70
     CG style diagonalization
     ethr =  1.00E-02,  avg # of iterations =  3.0

     total cpu time spent up to now is        1.4 secs

     total energy              =     -23.03964304 Ry
     estimated scf accuracy    <       0.13705436 Ry

     iteration #  2     ecut=    40.00 Ry     beta= 0.70
     CG style diagonalization
     ethr =  1.71E-03,  avg # of iterations =  3.6

     total cpu time spent up to now is        2.0 secs

     total energy              =     -23.05555481 Ry
     estimated scf accuracy    <       0.00145238 Ry

     iteration #  3     ecut=    40.00 Ry     beta= 0.70
     CG style diagonalization
     ethr =  1.82E-05,  avg # of iterations =  4.0

     total cpu time spent up to now is        2.6 secs

     total energy              =     -23.05602021 Ry
     estimated scf accuracy    <       0.00004863 Ry

     iteration #  4     ecut=    40.00 Ry     beta= 0.70
     CG style diagonalization
     ethr =  6.08E-07,  avg # of iterations =  4.0

     total cpu time spent up to now is        3.2 secs

     total energy              =     -23.05603662 Ry
     estimated scf accuracy    <       0.00000202 Ry

     iteration #  5     ecut=    40.00 Ry     beta= 0.70
     CG style diagonalization
     ethr =  2.52E-08,  avg # of iterations =  4.0

     total cpu time spent up to now is        3.8 secs

     total energy              =     -23.05603736 Ry
     estimated scf accuracy    <       0.00000001 Ry

     iteration #  6     ecut=    40.00 Ry     beta= 0.70
     CG style diagonalization
     ethr =  1.74E-10,  avg # of iterations =  4.7

     total cpu time spent up to now is        4.5 secs

     End of self-consistent calculation

          k = 0.0000 0.0000 0.0000 (   331 PWs)   bands (ev):

    -8.1415  13.2715  13.4360  13.4360

          k =-0.1660 0.1660-0.1660 (   320 PWs)   bands (ev):

    -7.3677   9.6350  12.2712  12.3952

          k =-0.3320 0.3320-0.3320 (   314 PWs)   bands (ev):

    -5.0921   3.9836  10.9708  11.0869

          k = 0.4980-0.4980 0.4980 (   332 PWs)   bands (ev):

    -2.2192  -0.1383  10.4873  10.6032

          k =-0.0000 0.3320-0.0000 (   327 PWs)   bands (ev):

    -7.1106  10.7316  10.7961  11.2166

          k =-0.1660 0.4980-0.1660 (   322 PWs)   bands (ev):

    -5.3352   6.1719   9.5220   9.9040

          k = 0.6640-0.3320 0.6640 (   321 PWs)   bands (ev):

    -2.2934   1.2992   8.3323   9.3977

          k = 0.4980-0.1660 0.4980 (   321 PWs)   bands (ev):

    -3.3942   2.8067   7.6373  10.4248

          k = 0.3320-0.0000 0.3320 (   317 PWs)   bands (ev):

    -6.0925   7.6767   8.5132  12.0338

          k =-0.0000 0.6640-0.0000 (   323 PWs)   bands (ev):

    -4.0822   6.2982   7.9744   8.0119

          k = 0.8300-0.1660 0.8300 (   326 PWs)   bands (ev):

    -1.4631   3.2665   5.5581   7.6842

          k = 0.6640-0.0000 0.6640 (   323 PWs)   bands (ev):

    -0.5841   2.4681   3.8332   8.6532

          k = 0.0000-0.9960 0.0000 (   326 PWs)   bands (ev):

     0.6492   0.6751   6.9755   7.0097

          k = 0.6640-0.3320 0.9960 (   318 PWs)   bands (ev):

    -3.1294   4.7751   5.9688   8.4827

          k = 0.4980-0.1660 0.8300 (   318 PWs)   bands (ev):

    -0.4408   1.6169   5.4902   7.3626

          k =-0.3320-0.9960 0.0000 (   330 PWs)   bands (ev):

     1.2287   1.2638   5.4100   5.4492

          k =-0.1660-0.1660-0.1660 (   320 PWs)   bands (ev):

    -7.3680   9.5666  12.3768  12.3768

          k =-0.3320-0.3320-0.3320 (   314 PWs)   bands (ev):

    -5.0919   3.9453  11.0516  11.0516

          k = 0.4980 0.4980 0.4980 (   332 PWs)   bands (ev):

    -2.1955  -0.1930  10.5624  10.5624

          k = 0.4980 0.1660-0.1660 (   322 PWs)   bands (ev):

    -5.3353   6.1597   9.4626   9.9857

          k =-0.4980-0.1660-0.1660 (   322 PWs)   bands (ev):

    -5.3354   6.1139   9.5073   9.9940

          k =-0.3320-0.6640 0.6640 (   321 PWs)   bands (ev):

    -2.2930   1.2956   8.3938   9.3374

          k = 0.3320 0.6640 0.6640 (   321 PWs)   bands (ev):

    -2.2830   1.2525   8.3948   9.3762

          k =-0.1660-0.4980 0.4980 (   321 PWs)   bands (ev):

    -3.3945   2.8108   7.6875  10.3531

          k = 0.1660 0.4980 0.4980 (   321 PWs)   bands (ev):

    -3.3919   2.7699   7.6881  10.4057

          k =-0.0000-0.3320 0.3320 (   317 PWs)   bands (ev):

    -6.0922   7.7385   8.5050  11.9508

          k =-0.1660-0.8300 0.8300 (   326 PWs)   bands (ev):

    -1.4622   3.2421   5.6207   7.6441

          k = 0.1660 0.8300 0.8300 (   326 PWs)   bands (ev):

    -1.4584   3.2146   5.6139   7.6795

          k =-0.0000-0.6640 0.6640 (   323 PWs)   bands (ev):

    -0.5955   2.5032   3.8447   8.6079

          k =-0.3320-0.6640 0.9960 (   318 PWs)   bands (ev):

    -3.1283   4.7266   5.9721   8.5381

          k = 0.1660 0.4980 0.8300 (   318 PWs)   bands (ev):

    -0.4142   1.5501   5.5287   7.3680

          k =-0.8300-0.1660 0.4980 (   318 PWs)   bands (ev):

    -0.4422   1.6137   5.5492   7.3031

     highest occupied level (ev):    13.4360

!    total energy              =     -23.05603738 Ry
     estimated scf accuracy    <          5.2E-10 Ry

     The total energy is the sum of the following terms:
     one-electron contribution =       8.12138190 Ry
     hartree contribution      =       1.90285019 Ry
     xc contribution           =      -7.37048047 Ry
     ewald contribution        =     -25.70978900 Ry

     convergence has been achieved in   6 iterations

     Forces acting on atoms (cartesian axes, Ry/au):

     atom    1 type  1   force =    -0.00526268   -0.00526268   -0.00526268
     atom    2 type  1   force =     0.00526268    0.00526268    0.00526268

     Total force =     0.012891     Total SCF correction =     0.000000


     Computing stress (Cartesian axis) and pressure

          total   stress  (Ry/bohr**3)                   (kbar)     P=      -62.33
  -0.00042371   0.00001225   0.00001225          -62.33        1.80        1.80
   0.00001225  -0.00042371   0.00001225            1.80      -62.33        1.80
   0.00001225   0.00001225  -0.00042371            1.80        1.80      -62.33


     BFGS Geometry Optimization
     Energy error            =      0.0E+00 Ry
     Gradient error          =      5.3E-03 Ry/Bohr

     number of scf cycles    =   1
     number of bfgs steps    =   0

     energy             new  =     -23.0560373795 Ry

     new trust radius        =       0.0091152289 bohr
     new conv_thr            =       0.0000000100 Ry


ATOMIC_POSITIONS (alat)
C            -0.0007880623       -0.0007880623       -0.0007880623
C             0.2507880623        0.2507880623        0.2507880623



     Writing config-only to output data dir ./Diamond.save/
     NEW-OLD atomic charge density approx. for the potential

     total cpu time spent up to now is        4.8 secs

     Self-consistent Calculation

     iteration #  1     ecut=    40.00 Ry     beta= 0.70
     CG style diagonalization
     ethr =  1.00E-06,  avg # of iterations =  5.4

     total cpu time spent up to now is        5.6 secs

     total energy              =     -23.05607183 Ry
     estimated scf accuracy    <       0.00001583 Ry

     iteration #  2     ecut=    40.00 Ry     beta= 0.70
     CG style diagonalization
     ethr =  1.98E-07,  avg # of iterations =  3.4

     total cpu time spent up to now is        6.1 secs

     total energy              =     -23.05607388 Ry
     estimated scf accuracy    <       0.00000029 Ry

     iteration #  3     ecut=    40.00 Ry     beta= 0.70
     CG style diagonalization
     ethr =  3.67E-09,  avg # of iterations =  3.9

     total cpu time spent up to now is        6.7 secs

     total energy              =     -23.05607397 Ry
     estimated scf accuracy    <       0.00000002 Ry

     iteration #  4     ecut=    40.00 Ry     beta= 0.70
     CG style diagonalization
     ethr =  1.92E-10,  avg # of iterations =  3.8

     total cpu time spent up to now is        7.3 secs

     End of self-consistent calculation

          k = 0.0000 0.0000 0.0000 (   331 PWs)   bands (ev):

    -8.1416  13.3493  13.3493  13.4441

          k =-0.1660 0.1660-0.1660 (   320 PWs)   bands (ev):

    -7.3678   9.6083  12.3143  12.3861

          k =-0.3320 0.3320-0.3320 (   314 PWs)   bands (ev):

    -5.0920   3.9685  11.0043  11.0711

          k = 0.4980-0.4980 0.4980 (   332 PWs)   bands (ev):

    -2.2099  -0.1598  10.5186  10.5853

          k =-0.0000 0.3320-0.0000 (   327 PWs)   bands (ev):

    -7.1106  10.7508  10.7813  11.2121

          k =-0.1660 0.4980-0.1660 (   322 PWs)   bands (ev):

    -5.3354   6.1396   9.4719  10.0011

          k = 0.6640-0.3320 0.6640 (   321 PWs)   bands (ev):

    -2.2889   1.2779   8.4068   9.3401

          k = 0.4980-0.1660 0.4980 (   321 PWs)   bands (ev):

    -3.3935   2.7954   7.6973  10.3601

          k = 0.3320-0.0000 0.3320 (   317 PWs)   bands (ev):

    -6.0923   7.7251   8.5075  11.9676

          k =-0.0000 0.6640-0.0000 (   323 PWs)   bands (ev):

    -4.0822   6.2988   7.9814   8.0041

          k = 0.8300-0.1660 0.8300 (   326 PWs)   bands (ev):

    -1.4605   3.2270   5.6295   7.6503

          k = 0.6640-0.0000 0.6640 (   323 PWs)   bands (ev):

    -0.5930   2.4956   3.8425   8.6171

          k = 0.0000-0.9960 0.0000 (   326 PWs)   bands (ev):

     0.6549   0.6695   6.9823   7.0025

          k = 0.6640-0.3320 0.9960 (   318 PWs)   bands (ev):

    -3.1285   4.7372   5.9710   8.5264

          k = 0.4980-0.1660 0.8300 (   318 PWs)   bands (ev):

    -0.4309   1.5894   5.5285   7.3413

          k =-0.3320-0.9960 0.0000 (   330 PWs)   bands (ev):

     1.2365   1.2562   5.4180   5.4409

          k =-0.1660-0.1660-0.1660 (   320 PWs)   bands (ev):

    -7.3677   9.6479  12.3247  12.3247

          k =-0.3320-0.3320-0.3320 (   314 PWs)   bands (ev):

    -5.0921   3.9906  11.0243  11.0243

          k = 0.4980 0.4980 0.4980 (   332 PWs)   bands (ev):

    -2.2233  -0.1285  10.5418  10.5418

          k = 0.4980 0.1660-0.1660 (   322 PWs)   bands (ev):

    -5.3353   6.1465   9.5031   9.9572

          k =-0.4980-0.1660-0.1660 (   322 PWs)   bands (ev):

    -5.3353   6.1730   9.4803   9.9491

          k =-0.3320-0.6640 0.6640 (   321 PWs)   bands (ev):

    -2.2892   1.2800   8.3698   9.3766

          k = 0.3320 0.6640 0.6640 (   321 PWs)   bands (ev):

    -2.2949   1.3049   8.3707   9.3523

          k =-0.1660-0.4980 0.4980 (   321 PWs)   bands (ev):

    -3.3933   2.7931   7.6678  10.4021

          k = 0.1660 0.4980 0.4980 (   321 PWs)   bands (ev):

    -3.3949   2.8166   7.6680  10.3710

          k =-0.0000-0.3320 0.3320 (   317 PWs)   bands (ev):

    -6.0925   7.6906   8.5107  12.0162

          k =-0.1660-0.8300 0.8300 (   326 PWs)   bands (ev):

    -1.4610   3.2409   5.5931   7.6739

          k = 0.1660 0.8300 0.8300 (   326 PWs)   bands (ev):

    -1.4632   3.2567   5.5975   7.6529

          k =-0.0000-0.6640 0.6640 (   323 PWs)   bands (ev):

    -0.5864   2.4758   3.8352   8.6437

          k =-0.3320-0.6640 0.9960 (   318 PWs)   bands (ev):

    -3.1291   4.7647   5.9700   8.4938

          k = 0.1660 0.4980 0.8300 (   318 PWs)   bands (ev):

    -0.4459   1.6276   5.5066   7.3377

          k =-0.8300-0.1660 0.4980 (   318 PWs)   bands (ev):

    -0.4301   1.5912   5.4949   7.3752

     highest occupied level (ev):    13.4441

!    total energy              =     -23.05607398 Ry
     estimated scf accuracy    <          1.8E-10 Ry

     The total energy is the sum of the following terms:
     one-electron contribution =       8.12142813 Ry
     hartree contribution      =       1.90285364 Ry
     xc contribution           =      -7.37048552 Ry
     ewald contribution        =     -25.70987023 Ry

     convergence has been achieved in   4 iterations

     Forces acting on atoms (cartesian axes, Ry/au):

     atom    1 type  1   force =     0.00297539    0.00297539    0.00297539
     atom    2 type  1   force =    -0.00297539   -0.00297539   -0.00297539

     Total force =     0.007288     Total SCF correction =     0.000012


     Computing stress (Cartesian axis) and pressure

          total   stress  (Ry/bohr**3)                   (kbar)     P=      -62.33
  -0.00042371  -0.00000640  -0.00000640          -62.33       -0.94       -0.94
  -0.00000640  -0.00042371  -0.00000640           -0.94      -62.33       -0.94
  -0.00000640  -0.00000640  -0.00042371           -0.94       -0.94      -62.33

     Energy error            =      3.7E-05 Ry
     Gradient error          =      3.0E-03 Ry/Bohr

     number of scf cycles    =   2
     number of bfgs steps    =   1

     energy             old  =     -23.0560373795 Ry
     energy             new  =     -23.0560739756 Ry

     CASE: energy            _new < energy            _old

     new trust radius        =       0.0032921995 bohr
     new conv_thr            =            1.0E-10 Ry


ATOMIC_POSITIONS (alat)
C            -0.0005034333       -0.0005034333       -0.0005034333
C             0.2505034333        0.2505034333        0.2505034333



     Writing config-only to output data dir ./Diamond.save/
     NEW-OLD atomic charge density approx. for the potential

     total cpu time spent up to now is        7.6 secs

     Self-consistent Calculation

     iteration #  1     ecut=    40.00 Ry     beta= 0.70
     CG style diagonalization
     ethr =  1.00E-06,  avg # of iterations =  4.0

     Threshold (ethr) on eigenvalues was too large:
     Diagonalizing with lowered threshold

     CG style diagonalization
     ethr =  2.80E-08,  avg # of iterations =  3.4

     total cpu time spent up to now is        8.7 secs

     total energy              =     -23.05609099 Ry
     estimated scf accuracy    <       0.00000203 Ry

     iteration #  2     ecut=    40.00 Ry     beta= 0.70
     CG style diagonalization
     ethr =  2.53E-08,  avg # of iterations =  3.4

     total cpu time spent up to now is        9.3 secs

     total energy              =     -23.05609118 Ry
     estimated scf accuracy    <       0.00000004 Ry

     iteration #  3     ecut=    40.00 Ry     beta= 0.70
     CG style diagonalization
     ethr =  4.89E-10,  avg # of iterations =  3.9

     total cpu time spent up to now is        9.9 secs

     total energy              =     -23.05609119 Ry
     estimated scf accuracy    <          2.0E-09 Ry

     iteration #  4     ecut=    40.00 Ry     beta= 0.70
     CG style diagonalization
     ethr =  2.55E-11,  avg # of iterations =  3.8

     total cpu time spent up to now is       10.4 secs

     End of self-consistent calculation

          k = 0.0000 0.0000 0.0000 (   331 PWs)   bands (ev):

    -8.1415  13.3805  13.3805  13.3817

          k =-0.1660 0.1660-0.1660 (   320 PWs)   bands (ev):

    -7.3677   9.6183  12.3435  12.3443

          k =-0.3320 0.3320-0.3320 (   314 PWs)   bands (ev):

    -5.0920   3.9741  11.0340  11.0348

          k = 0.4980-0.4980 0.4980 (   332 PWs)   bands (ev):

    -2.2131  -0.1520  10.5490  10.5498

          k =-0.0000 0.3320-0.0000 (   327 PWs)   bands (ev):

    -7.1106  10.7672  10.7676  11.2095

          k =-0.1660 0.4980-0.1660 (   322 PWs)   bands (ev):

    -5.3353   6.1514   9.4900   9.9659

          k = 0.6640-0.3320 0.6640 (   321 PWs)   bands (ev):

    -2.2905   1.2857   8.3799   9.3609

          k = 0.4980-0.1660 0.4980 (   321 PWs)   bands (ev):

    -3.3937   2.7996   7.6757  10.3835

          k = 0.3320-0.0000 0.3320 (   317 PWs)   bands (ev):

    -6.0923   7.7083   8.5091  11.9915

          k =-0.0000 0.6640-0.0000 (   323 PWs)   bands (ev):

    -4.0822   6.2992   7.9925   7.9928

          k = 0.8300-0.1660 0.8300 (   326 PWs)   bands (ev):

    -1.4613   3.2413   5.6037   7.6626

          k = 0.6640-0.0000 0.6640 (   323 PWs)   bands (ev):

    -0.5897   2.4859   3.8389   8.6302

          k = 0.0000-0.9960 0.0000 (   326 PWs)   bands (ev):

     0.6622   0.6624   6.9923   6.9925

          k = 0.6640-0.3320 0.9960 (   318 PWs)   bands (ev):

    -3.1287   4.7509   5.9706   8.5102

          k = 0.4980-0.1660 0.8300 (   318 PWs)   bands (ev):

    -0.4343   1.5993   5.5148   7.3488

          k =-0.3320-0.9960 0.0000 (   330 PWs)   bands (ev):

     1.2464   1.2466   5.4293   5.4296

          k =-0.1660-0.1660-0.1660 (   320 PWs)   bands (ev):

    -7.3677   9.6188  12.3436  12.3436

          k =-0.3320-0.3320-0.3320 (   314 PWs)   bands (ev):

    -5.0920   3.9743  11.0343  11.0343

          k = 0.4980 0.4980 0.4980 (   332 PWs)   bands (ev):

    -2.2133  -0.1517  10.5493  10.5493

          k = 0.4980 0.1660-0.1660 (   322 PWs)   bands (ev):

    -5.3353   6.1515   9.4904   9.9654

          k =-0.4980-0.1660-0.1660 (   322 PWs)   bands (ev):

    -5.3353   6.1518   9.4901   9.9653

          k =-0.3320-0.6640 0.6640 (   321 PWs)   bands (ev):

    -2.2905   1.2857   8.3795   9.3613

          k = 0.3320 0.6640 0.6640 (   321 PWs)   bands (ev):

    -2.2905   1.2860   8.3795   9.3610

          k =-0.1660-0.4980 0.4980 (   321 PWs)   bands (ev):

    -3.3937   2.7995   7.6753  10.3839

          k = 0.1660 0.4980 0.4980 (   321 PWs)   bands (ev):

    -3.3937   2.7998   7.6753  10.3836

          k =-0.0000-0.3320 0.3320 (   317 PWs)   bands (ev):

    -6.0923   7.7079   8.5092  11.9921

          k =-0.1660-0.8300 0.8300 (   326 PWs)   bands (ev):

    -1.4613   3.2415   5.6032   7.6629

          k = 0.1660 0.8300 0.8300 (   326 PWs)   bands (ev):

    -1.4613   3.2416   5.6033   7.6626

          k =-0.0000-0.6640 0.6640 (   323 PWs)   bands (ev):

    -0.5896   2.4857   3.8388   8.6305

          k =-0.3320-0.6640 0.9960 (   318 PWs)   bands (ev):

    -3.1287   4.7512   5.9706   8.5099

          k = 0.1660 0.4980 0.8300 (   318 PWs)   bands (ev):

    -0.4345   1.5997   5.5146   7.3487

          k =-0.8300-0.1660 0.4980 (   318 PWs)   bands (ev):

    -0.4343   1.5993   5.5145   7.3491

     highest occupied level (ev):    13.3817

!    total energy              =     -23.05609119 Ry
     estimated scf accuracy    <          3.4E-11 Ry

     The total energy is the sum of the following terms:
     one-electron contribution =       8.12146483 Ry
     hartree contribution      =       1.90283280 Ry
     xc contribution           =      -7.37047937 Ry
     ewald contribution        =     -25.70990945 Ry

     convergence has been achieved in   4 iterations

     Forces acting on atoms (cartesian axes, Ry/au):

     atom    1 type  1   force =     0.00003680    0.00003680    0.00003680
     atom    2 type  1   force =    -0.00003680   -0.00003680   -0.00003680

     Total force =     0.000090     Total SCF correction =     0.000006


     Computing stress (Cartesian axis) and pressure

          total   stress  (Ry/bohr**3)                   (kbar)     P=      -62.41
  -0.00042425  -0.00000014  -0.00000014          -62.41       -0.02       -0.02
  -0.00000014  -0.00042425  -0.00000014           -0.02      -62.41       -0.02
  -0.00000014  -0.00000014  -0.00042425           -0.02       -0.02      -62.41

     Energy error            =      1.7E-05 Ry
     Gradient error          =      3.7E-05 Ry/Bohr

     bfgs converged in   3 scf cycles and   2 bfgs steps
     (criteria: energy <  1.0E-04 Ry, force <  1.0E-03 Ry/Bohr)

     End of BFGS Geometry Optimization

     Final energy             =     -23.0560911942 Ry

     File ./Diamond.bfgs deleted, as requested
Begin final coordinates

ATOMIC_POSITIONS (alat)
C            -0.0005034333       -0.0005034333       -0.0005034333
C             0.2505034333        0.2505034333        0.2505034333
End final coordinates



     Writing all to output data dir ./Diamond.save/
 
     init_run     :      0.51s CPU      0.54s WALL (       1 calls)
     electrons    :      7.48s CPU      8.99s WALL (       3 calls)
     update_pot   :      0.01s CPU      0.02s WALL (       2 calls)
     forces       :      0.07s CPU      0.08s WALL (       3 calls)
     stress       :      0.38s CPU      0.38s WALL (       3 calls)

     Called by init_run:
     wfcinit      :      0.21s CPU      0.22s WALL (       1 calls)
     potinit      :      0.00s CPU      0.01s WALL (       1 calls)
     hinit0       :      0.28s CPU      0.30s WALL (       1 calls)

     Called by electrons:
     c_bands      :      6.55s CPU      7.96s WALL (      15 calls)
     sum_band     :      0.82s CPU      0.87s WALL (      15 calls)
     v_of_rho     :      0.04s CPU      0.04s WALL (      17 calls)
     newd         :      0.06s CPU      0.06s WALL (      17 calls)
     mix_rho      :      0.01s CPU      0.01s WALL (      15 calls)

     Called by c_bands:
     init_us_2    :      0.24s CPU      0.28s WALL (    1184 calls)
     init_us_2:cp :      0.22s CPU      0.27s WALL (    1184 calls)
     ccgdiagg     :      5.15s CPU      5.73s WALL (     480 calls)
     wfcrot       :      1.29s CPU      1.38s WALL (     384 calls)

     Called by *cgdiagg:
     h_psi        :      5.29s CPU      5.82s WALL (    6426 calls)
     s_psi        :      0.23s CPU      0.27s WALL (   12468 calls)

     Called by h_psi:
     h_psi:calbec :      0.22s CPU      0.24s WALL (    6426 calls)
     vloc_psi     :      4.69s CPU      5.15s WALL (    6426 calls)
     add_vuspsi   :      0.13s CPU      0.15s WALL (    6426 calls)
     hs_1psi      :      4.54s CPU      5.04s WALL (    6042 calls)
     s_1psi       :      0.40s CPU      0.45s WALL (    6042 calls)

     General routines
     calbec       :      0.27s CPU      0.32s WALL (   13428 calls)
     fft          :      0.04s CPU      0.05s WALL (      95 calls)
     ffts         :      0.00s CPU      0.00s WALL (      15 calls)
     fftw         :      4.80s CPU      5.25s WALL (   17332 calls)
 
     Parallel routines
 
     PWSCF        :      8.87s CPU     10.92s WALL

 
   This run was terminated on:  19: 6: 1  14Mar2022            

=------------------------------------------------------------------------------=
   JOB DONE.
=------------------------------------------------------------------------------=
