
     Program PWSCF v.7.0 starts on 14Mar2022 at 23:25:17 

     This program is part of the open-source Quantum ESPRESSO suite
     for quantum simulation of materials; please cite
         "P. Giannozzi et al., J. Phys.:Condens. Matter 21 395502 (2009);
         "P. Giannozzi et al., J. Phys.:Condens. Matter 29 465901 (2017);
         "P. Giannozzi et al., J. Chem. Phys. 152 154105 (2020);
          URL http://www.quantum-espresso.org", 
     in publications or presentations arising from this work. More details at
     http://www.quantum-espresso.org/quote

     Parallel version (MPI), running on     1 processors

     MPI processes distributed on     1 nodes
     90867 MiB available memory on the printing compute node when the environment starts
 
     Waiting for input...
     Reading input from standard input
Warning: card &CELL ignored
Warning: card  CELL_DYNAMICS = 'BFGS', ignored
Warning: card  PRESS=0.1D0, ignored
Warning: card / ignored
     Message from routine read_cards :
     DEPRECATED: no units specified in ATOMIC_POSITIONS card
     Message from routine read_cards :
     ATOMIC_POSITIONS: units set to alat

     Current dimensions of program PWSCF are:
     Max number of different atomic species (ntypx) = 10
     Max number of k-points (npk) =  40000
     Max angular momentum in pseudopotentials (lmaxx) =  4
     Message from routine setup:
     using ibrav=0 with symmetry is DISCOURAGED, use correct ibrav instead

     Subspace diagonalization in iterative solution of the eigenvalue problem:
     a serial algorithm will be used

 
     G-vector sticks info
     --------------------
     sticks:   dense  smooth     PW     G-vecs:    dense   smooth      PW
     Sum         253     253     85                 2613     2613     531
 
     Using Slab Decomposition
 


     bravais-lattice index     =            0
     lattice parameter (alat)  =       6.6720  a.u.
     unit-cell volume          =      74.2511 (a.u.)^3
     number of atoms/cell      =            2
     number of atomic types    =            1
     number of electrons       =         8.00
     number of Kohn-Sham states=            4
     kinetic-energy cutoff     =      40.0000  Ry
     charge density cutoff     =     160.0000  Ry
     scf convergence threshold =      1.0E-08
     mixing beta               =       0.7000
     number of iterations used =            8  plain     mixing
     energy convergence thresh.=      1.0E-04
     force convergence thresh. =      1.0E-03
     Exchange-correlation= SLA  PZ   NOGX NOGC
                           (   1   1   0   0   0   0   0)
     nstep                     =           50


     celldm(1)=   6.672000  celldm(2)=   0.000000  celldm(3)=   0.000000
     celldm(4)=   0.000000  celldm(5)=   0.000000  celldm(6)=   0.000000

     crystal axes: (cart. coord. in units of alat)
               a(1) = (  -0.501000   0.000000   0.498000 )  
               a(2) = (   0.000000   0.501000   0.498000 )  
               a(3) = (  -0.501000   0.501000   0.000000 )  

     reciprocal axes: (cart. coord. in units 2 pi/alat)
               b(1) = ( -0.998004 -0.998004  1.004016 )  
               b(2) = (  0.998004  0.998004  1.004016 )  
               b(3) = ( -0.998004  0.998004 -1.004016 )  


     PseudoPot. # 1 for C  read from file:
     ./C_LDA.UPF
     MD5 check sum: 407c1fe918d93b14b177d5600f28733c
     Pseudo is Ultrasoft + core correction, Zval =  4.0
     Generated by new atomic code, or converted to UPF format
     Using radial grid of  721 points,  4 beta functions with: 
                l(1) =   0
                l(2) =   0
                l(3) =   1
                l(4) =   1
     Q(r) pseudized with  8 coefficients,  rinner =    1.100   1.100   1.100


     atomic species   valence    mass     pseudopotential
        C              4.00    12.01100     C ( 1.00)

      2 Sym. Ops. (no inversion) found



   Cartesian axes

     site n.     atom                  positions (alat units)
         1           C   tau(   1) = (   0.0000000   0.0000000   0.0000000  )
         2           C   tau(   2) = (   0.2500000   0.2500000   0.2500000  )

     number of k points=    68
                       cart. coord. in units 2pi/alat
        k(    1) = (   0.0000000   0.0000000   0.0000000), wk =   0.0092593
        k(    2) = (  -0.1663340   0.1663340  -0.1673360), wk =   0.0370370
        k(    3) = (  -0.3326680   0.3326680  -0.3346720), wk =   0.0370370
        k(    4) = (   0.4990020  -0.4990020   0.5020080), wk =   0.0185185
        k(    5) = (  -0.0000000   0.3326680   0.0000000), wk =   0.0370370
        k(    6) = (  -0.1663340   0.4990020  -0.1673360), wk =   0.0370370
        k(    7) = (   0.6653360  -0.3326680   0.6693440), wk =   0.0370370
        k(    8) = (   0.4990020  -0.1663340   0.5020080), wk =   0.0370370
        k(    9) = (   0.3326680  -0.0000000   0.3346720), wk =   0.0370370
        k(   10) = (  -0.0000000   0.6653360   0.0000000), wk =   0.0370370
        k(   11) = (   0.8316700  -0.1663340   0.8366801), wk =   0.0370370
        k(   12) = (   0.6653360  -0.0000000   0.6693440), wk =   0.0370370
        k(   13) = (   0.0000000  -0.9980040   0.0000000), wk =   0.0185185
        k(   14) = (  -0.0000000  -0.0000000   0.3346720), wk =   0.0185185
        k(   15) = (  -0.3326680   0.3326680   0.0000000), wk =   0.0185185
        k(   16) = (   0.4990020  -0.4990020   0.8366801), wk =   0.0370370
        k(   17) = (   0.3326680  -0.3326680   0.6693440), wk =   0.0370370
        k(   18) = (   0.1663340  -0.1663340   0.5020080), wk =   0.0370370
        k(   19) = (   0.6653360  -0.3326680   1.0040161), wk =   0.0370370
        k(   20) = (   0.4990020  -0.1663340   0.8366801), wk =   0.0370370
        k(   21) = (   0.3326680  -0.0000000   0.6693440), wk =   0.0370370
        k(   22) = (  -0.9980040  -0.3326680  -0.6693440), wk =   0.0370370
        k(   23) = (  -0.3326680  -0.9980040   0.0000000), wk =   0.0370370
        k(   24) = (  -0.8316700  -0.1663340  -0.5020080), wk =   0.0185185
        k(   25) = (  -0.0000000  -0.9980040   0.3346720), wk =   0.0370370
        k(   26) = (  -0.0000000  -0.0000000   0.6693440), wk =   0.0185185
        k(   27) = (   0.3326680  -0.3326680   1.0040161), wk =   0.0185185
        k(   28) = (   0.1663340  -0.1663340   0.8366801), wk =   0.0370370
        k(   29) = (  -0.6653360  -0.9980040   0.0000000), wk =   0.0370370
        k(   30) = (   0.0000000   0.0000000  -1.0040161), wk =   0.0092593
        k(   31) = (   0.1663340   0.1663340   0.1673360), wk =   0.0185185
        k(   32) = (  -0.1663340  -0.1663340   0.1673360), wk =   0.0185185
        k(   33) = (   0.3326680   0.3326680   0.3346720), wk =   0.0185185
        k(   34) = (  -0.3326680  -0.3326680   0.3346720), wk =   0.0185185
        k(   35) = (  -0.4990020  -0.4990020  -0.5020080), wk =   0.0092593
        k(   36) = (   0.4990020   0.4990020  -0.5020080), wk =   0.0092593
        k(   37) = (   0.1663340   0.4990020   0.1673360), wk =   0.0370370
        k(   38) = (  -0.1663340  -0.4990020   0.1673360), wk =   0.0370370
        k(   39) = (   0.4990020  -0.1663340   0.1673360), wk =   0.0370370
        k(   40) = (  -0.6653360  -0.3326680  -0.6693440), wk =   0.0370370
        k(   41) = (   0.6653360   0.3326680  -0.6693440), wk =   0.0370370
        k(   42) = (  -0.3326680   0.6653360  -0.6693440), wk =   0.0370370
        k(   43) = (  -0.4990020  -0.1663340  -0.5020080), wk =   0.0370370
        k(   44) = (   0.4990020   0.1663340  -0.5020080), wk =   0.0370370
        k(   45) = (  -0.1663340   0.4990020  -0.5020080), wk =   0.0370370
        k(   46) = (   0.3326680   0.0000000  -0.3346720), wk =   0.0370370
        k(   47) = (  -0.8316700  -0.1663340  -0.8366801), wk =   0.0370370
        k(   48) = (   0.8316700   0.1663340  -0.8366801), wk =   0.0370370
        k(   49) = (  -0.1663340   0.8316700  -0.8366801), wk =   0.0370370
        k(   50) = (   0.6653360  -0.0000000  -0.6693440), wk =   0.0370370
        k(   51) = (   0.3326680   0.3326680   0.0000000), wk =   0.0185185
        k(   52) = (  -0.4990020  -0.4990020  -0.8366801), wk =   0.0185185
        k(   53) = (   0.4990020   0.4990020  -0.8366801), wk =   0.0185185
        k(   54) = (  -0.3326680  -0.3326680  -0.6693440), wk =   0.0185185
        k(   55) = (   0.3326680   0.3326680  -0.6693440), wk =   0.0185185
        k(   56) = (  -0.1663340  -0.1663340  -0.5020080), wk =   0.0185185
        k(   57) = (   0.1663340   0.1663340  -0.5020080), wk =   0.0185185
        k(   58) = (  -0.6653360  -0.3326680  -1.0040161), wk =   0.0370370
        k(   59) = (  -0.4990020  -0.1663340  -0.8366801), wk =   0.0370370
        k(   60) = (   0.4990020   0.1663340  -0.8366801), wk =   0.0370370
        k(   61) = (  -0.1663340   0.4990020  -0.8366801), wk =   0.0370370
        k(   62) = (   0.3326680   0.0000000  -0.6693440), wk =   0.0370370
        k(   63) = (   0.9980040  -0.3326680   0.6693440), wk =   0.0370370
        k(   64) = (   0.8316700  -0.1663340   0.5020080), wk =   0.0370370
        k(   65) = (  -0.1663340  -0.8316700   0.5020080), wk =   0.0185185
        k(   66) = (  -0.3326680  -0.3326680  -1.0040161), wk =   0.0185185
        k(   67) = (  -0.1663340  -0.1663340  -0.8366801), wk =   0.0185185
        k(   68) = (   0.1663340   0.1663340  -0.8366801), wk =   0.0185185

     Dense  grid:     2613 G-vectors     FFT dimensions: (  20,  20,  20)

     Estimated max dynamical RAM per process >       5.33 MB

     Initial potential from superposition of free atoms

     starting charge       7.9999, renormalised to       8.0000
     Starting wfcs are    8 randomized atomic wfcs

     total cpu time spent up to now is        1.2 secs

     Self-consistent Calculation

     iteration #  1     ecut=    40.00 Ry     beta= 0.70
     CG style diagonalization
     ethr =  1.00E-02,  avg # of iterations =  3.0

     total cpu time spent up to now is        2.3 secs

     total energy              =     -23.03917607 Ry
     estimated scf accuracy    <       0.14175203 Ry

     iteration #  2     ecut=    40.00 Ry     beta= 0.70
     CG style diagonalization
     ethr =  1.77E-03,  avg # of iterations =  3.6

     total cpu time spent up to now is        3.4 secs

     total energy              =     -23.05567614 Ry
     estimated scf accuracy    <       0.00145742 Ry

     iteration #  3     ecut=    40.00 Ry     beta= 0.70
     CG style diagonalization
     ethr =  1.82E-05,  avg # of iterations =  4.0

     total cpu time spent up to now is        4.7 secs

     total energy              =     -23.05616452 Ry
     estimated scf accuracy    <       0.00004781 Ry

     iteration #  4     ecut=    40.00 Ry     beta= 0.70
     CG style diagonalization
     ethr =  5.98E-07,  avg # of iterations =  4.0

     total cpu time spent up to now is        6.0 secs

     total energy              =     -23.05618109 Ry
     estimated scf accuracy    <       0.00000214 Ry

     iteration #  5     ecut=    40.00 Ry     beta= 0.70
     CG style diagonalization
     ethr =  2.67E-08,  avg # of iterations =  4.0

     total cpu time spent up to now is        7.3 secs

     total energy              =     -23.05618184 Ry
     estimated scf accuracy    <       0.00000002 Ry

     iteration #  6     ecut=    40.00 Ry     beta= 0.70
     CG style diagonalization
     ethr =  2.32E-10,  avg # of iterations =  4.6

     total cpu time spent up to now is        8.7 secs

     End of self-consistent calculation

          k = 0.0000 0.0000 0.0000 (   331 PWs)   bands (ev):

    -8.0718  13.5631  13.6488  13.7353

          k =-0.1663 0.1663-0.1673 (   320 PWs)   bands (ev):

    -7.2904   9.8269  12.5796  12.6358

          k =-0.3327 0.3327-0.3347 (   308 PWs)   bands (ev):

    -4.9904   4.1337  11.2437  11.3085

          k = 0.4990-0.4990 0.5020 (   332 PWs)   bands (ev):

    -2.0518  -0.0623  10.7476  10.8199

          k =-0.0000 0.3327 0.0000 (   311 PWs)   bands (ev):

    -7.0349  10.9832  11.0403  11.4446

          k =-0.1663 0.4990-0.1673 (   320 PWs)   bands (ev):

    -5.2453   6.3438   9.7362  10.1747

          k = 0.6653-0.3327 0.6693 (   319 PWs)   bands (ev):

    -2.1584   1.4193   8.5592   9.6114

          k = 0.4990-0.1663 0.5020 (   317 PWs)   bands (ev):

    -3.2639   2.9332   7.8496  10.6536

          k = 0.3327-0.0000 0.3347 (   317 PWs)   bands (ev):

    -5.9978   7.9020   8.6884  12.2891

          k =-0.0000 0.6653 0.0000 (   323 PWs)   bands (ev):

    -3.9874   6.4826   8.1974   8.2248

          k = 0.8317-0.1663 0.8367 (   318 PWs)   bands (ev):

    -1.3414   3.4117   5.7622   7.8895

          k = 0.6653-0.0000 0.6693 (   322 PWs)   bands (ev):

    -0.4167   2.6279   3.9478   8.8746

          k = 0.0000-0.9980 0.0000 (   322 PWs)   bands (ev):

     0.7865   0.7987   7.1929   7.2107

          k =-0.0000-0.0000 0.3347 (   315 PWs)   bands (ev):

    -7.0222  10.9292  10.9857  11.5446

          k =-0.3327 0.3327 0.0000 (   317 PWs)   bands (ev):

    -6.0105   7.9096   8.7596  12.2321

          k = 0.4990-0.4990 0.8367 (   317 PWs)   bands (ev):

    -3.2866   2.9733   7.9215  10.5824

          k = 0.3327-0.3327 0.6693 (   319 PWs)   bands (ev):

    -2.1284   1.3935   8.6465   9.5417

          k = 0.1663-0.1663 0.5020 (   319 PWs)   bands (ev):

    -5.2205   6.3186   9.6777  10.2469

          k = 0.6653-0.3327 1.0040 (   318 PWs)   bands (ev):

    -3.0248   4.9513   6.1896   8.6975

          k = 0.4990-0.1663 0.8367 (   317 PWs)   bands (ev):

    -0.2534   1.7288   5.6886   7.5587

          k = 0.3327-0.0000 0.6693 (   318 PWs)   bands (ev):

    -2.9784   4.9305   6.0976   8.7710

          k =-0.9980-0.3327-0.6693 (   318 PWs)   bands (ev):

    -3.0138   4.9257   6.1348   8.7214

          k =-0.3327-0.9980 0.0000 (   316 PWs)   bands (ev):

     1.3912   1.4119   5.6026   5.6264

          k =-0.8317-0.1663-0.5020 (   316 PWs)   bands (ev):

    -0.2720   1.7321   5.6411   7.5601

          k =-0.0000-0.9980 0.3347 (   312 PWs)   bands (ev):

     1.3926   1.4093   5.5774   5.5974

          k =-0.0000-0.0000 0.6693 (   323 PWs)   bands (ev):

    -3.9387   6.6066   8.1103   8.1498

          k = 0.3327-0.3327 1.0040 (   319 PWs)   bands (ev):

    -0.4400   2.6976   4.0127   8.7918

          k = 0.1663-0.1663 0.8367 (   318 PWs)   bands (ev):

    -1.2746   3.4658   5.7440   7.8098

          k =-0.6653-0.9980 0.0000 (   320 PWs)   bands (ev):

     1.4549   1.4858   5.5285   5.5662

          k = 0.0000 0.0000-1.0040 (   310 PWs)   bands (ev):

     0.8779   0.9022   7.0930   7.1280

          k = 0.1663 0.1663 0.1673 (   320 PWs)   bands (ev):

    -7.2904   9.8451  12.5121  12.6800

          k =-0.1663-0.1663 0.1673 (   320 PWs)   bands (ev):

    -7.2902   9.8793  12.5212  12.6264

          k = 0.3327 0.3327 0.3347 (   308 PWs)   bands (ev):

    -4.9903   4.1433  11.1770  11.3633

          k =-0.3327-0.3327 0.3347 (   308 PWs)   bands (ev):

    -4.9903   4.1623  11.1945  11.3223

          k =-0.4990-0.4990-0.5020 (   332 PWs)   bands (ev):

    -2.0575  -0.0489  10.6805  10.8782

          k = 0.4990 0.4990-0.5020 (   332 PWs)   bands (ev):

    -2.0690  -0.0220  10.7008  10.8400

          k = 0.1663 0.4990 0.1673 (   320 PWs)   bands (ev):

    -5.2452   6.3584   9.7323  10.1595

          k =-0.1663-0.4990 0.1673 (   320 PWs)   bands (ev):

    -5.2451   6.3814   9.7159  10.1489

          k = 0.4990-0.1663 0.1673 (   320 PWs)   bands (ev):

    -5.2454   6.3379   9.7074  10.2146

          k =-0.6653-0.3327-0.6693 (   319 PWs)   bands (ev):

    -2.1608   1.4307   8.5400   9.6203

          k = 0.6653 0.3327-0.6693 (   319 PWs)   bands (ev):

    -2.1654   1.4519   8.5423   9.5976

          k =-0.3327 0.6653-0.6693 (   319 PWs)   bands (ev):

    -2.1582   1.4175   8.5906   9.5803

          k =-0.4990-0.1663-0.5020 (   317 PWs)   bands (ev):

    -3.2644   2.9425   7.8355  10.6595

          k = 0.4990 0.1663-0.5020 (   317 PWs)   bands (ev):

    -3.2656   2.9626   7.8363  10.6316

          k =-0.1663 0.4990-0.5020 (   317 PWs)   bands (ev):

    -3.2640   2.9352   7.8751  10.6169

          k = 0.3327 0.0000-0.3347 (   317 PWs)   bands (ev):

    -5.9976   7.9318   8.6861  12.2461

          k =-0.8317-0.1663-0.8367 (   318 PWs)   bands (ev):

    -1.3424   3.4242   5.7483   7.8909

          k = 0.8317 0.1663-0.8367 (   318 PWs)   bands (ev):

    -1.3441   3.4376   5.7525   7.8723

          k =-0.1663 0.8317-0.8367 (   318 PWs)   bands (ev):

    -1.3410   3.3996   5.7938   7.8687

          k = 0.6653-0.0000-0.6693 (   322 PWs)   bands (ev):

    -0.4223   2.6448   3.9544   8.8512

          k = 0.3327 0.3327 0.0000 (   317 PWs)   bands (ev):

    -6.0101   7.9700   8.7539  12.1473

          k =-0.4990-0.4990-0.8367 (   317 PWs)   bands (ev):

    -3.2873   2.9863   7.9602  10.5140

          k = 0.4990 0.4990-0.8367 (   317 PWs)   bands (ev):

    -3.2883   3.0045   7.9346  10.5235

          k =-0.3327-0.3327-0.6693 (   319 PWs)   bands (ev):

    -2.1304   1.4016   8.6950   9.4838

          k = 0.3327 0.3327-0.6693 (   319 PWs)   bands (ev):

    -2.1354   1.4246   8.6635   9.4945

          k =-0.1663-0.1663-0.5020 (   319 PWs)   bands (ev):

    -5.2205   6.3221   9.6254  10.3017

          k = 0.1663 0.1663-0.5020 (   319 PWs)   bands (ev):

    -5.2204   6.3506   9.6327  10.2566

          k =-0.6653-0.3327-1.0040 (   318 PWs)   bands (ev):

    -3.0256   4.9987   6.1879   8.6410

          k =-0.4990-0.1663-0.8367 (   317 PWs)   bands (ev):

    -0.2607   1.7429   5.7214   7.5142

          k = 0.4990 0.1663-0.8367 (   317 PWs)   bands (ev):

    -0.2736   1.7758   5.7033   7.5102

          k =-0.1663 0.4990-0.8367 (   317 PWs)   bands (ev):

    -0.2540   1.7271   5.7187   7.5282

          k = 0.3327 0.0000-0.6693 (   318 PWs)   bands (ev):

    -2.9788   4.9543   6.0970   8.7422

          k = 0.9980-0.3327 0.6693 (   318 PWs)   bands (ev):

    -3.0143   4.9494   6.1342   8.6929

          k = 0.8317-0.1663 0.5020 (   316 PWs)   bands (ev):

    -0.2665   1.7132   5.6945   7.5172

          k =-0.1663-0.8317 0.5020 (   316 PWs)   bands (ev):

    -0.2856   1.7635   5.6513   7.5274

          k =-0.3327-0.3327-1.0040 (   319 PWs)   bands (ev):

    -0.4503   2.7313   4.0251   8.7455

          k =-0.1663-0.1663-0.8367 (   318 PWs)   bands (ev):

    -1.2748   3.4543   5.7935   7.7698

          k = 0.1663 0.1663-0.8367 (   318 PWs)   bands (ev):

    -1.2771   3.4811   5.7646   7.7721

     highest occupied level (ev):    13.7353

!    total energy              =     -23.05618186 Ry
     estimated scf accuracy    <          6.0E-10 Ry

     The total energy is the sum of the following terms:
     one-electron contribution =       8.28701007 Ry
     hartree contribution      =       1.88832346 Ry
     xc contribution           =      -7.39536684 Ry
     ewald contribution        =     -25.83614856 Ry

     convergence has been achieved in   6 iterations

     Forces acting on atoms (cartesian axes, Ry/au):

     atom    1 type  1   force =    -0.00263882   -0.00263882    0.00535481
     atom    2 type  1   force =     0.00263882    0.00263882   -0.00535481

     Total force =     0.009230     Total SCF correction =     0.000000


     Computing stress (Cartesian axis) and pressure

          total   stress  (Ry/bohr**3)                   (kbar)     P=        4.20
  -0.00010026  -0.00001473   0.00000691          -14.75       -2.17        1.02
  -0.00001473  -0.00010026   0.00000691           -2.17      -14.75        1.02
   0.00000691   0.00000691   0.00028623            1.02        1.02       42.11


     BFGS Geometry Optimization
     Energy error            =      0.0E+00 Ry
     Gradient error          =      5.4E-03 Ry/Bohr

     number of scf cycles    =   1
     number of bfgs steps    =   0

     energy             new  =     -23.0561818631 Ry

     new trust radius        =       0.0065269290 bohr
     new conv_thr            =       0.0000000100 Ry


ATOMIC_POSITIONS (alat)
C            -0.0003955073       -0.0003955073        0.0008025797
C             0.2503955073        0.2503955073        0.2491974203



     Writing config-only to output data dir ./Diamond.save/
     NEW-OLD atomic charge density approx. for the potential

     total cpu time spent up to now is        9.1 secs

     Self-consistent Calculation

     iteration #  1     ecut=    40.00 Ry     beta= 0.70
     CG style diagonalization
     c_bands:  1 eigenvalues not converged
     c_bands:  1 eigenvalues not converged
     c_bands:  1 eigenvalues not converged
     ethr =  1.00E-06,  avg # of iterations =  5.5

     total cpu time spent up to now is       10.8 secs

     total energy              =     -23.05619691 Ry
     estimated scf accuracy    <       0.00000845 Ry

     iteration #  2     ecut=    40.00 Ry     beta= 0.70
     CG style diagonalization
     ethr =  1.06E-07,  avg # of iterations =  3.7

     total cpu time spent up to now is       12.0 secs

     total energy              =     -23.05619893 Ry
     estimated scf accuracy    <       0.00000015 Ry

     iteration #  3     ecut=    40.00 Ry     beta= 0.70
     CG style diagonalization
     ethr =  1.92E-09,  avg # of iterations =  3.9

     total cpu time spent up to now is       13.3 secs

     End of self-consistent calculation

          k = 0.0000 0.0000 0.0000 (   331 PWs)   bands (ev):

    -8.0719  13.5807  13.6519  13.7141

          k =-0.1663 0.1663-0.1673 (   320 PWs)   bands (ev):

    -7.2904   9.8553  12.5312  12.6474

          k =-0.3327 0.3327-0.3347 (   308 PWs)   bands (ev):

    -4.9904   4.1490  11.1979  11.3351

          k = 0.4990-0.4990 0.5020 (   332 PWs)   bands (ev):

    -2.0610  -0.0408  10.7024  10.8507

          k =-0.0000 0.3327 0.0000 (   311 PWs)   bands (ev):

    -7.0349  10.9868  11.0398  11.4413

          k =-0.1663 0.4990-0.1673 (   320 PWs)   bands (ev):

    -5.2452   6.3624   9.7153  10.1736

          k = 0.6653-0.3327 0.6693 (   319 PWs)   bands (ev):

    -2.1621   1.4362   8.5567   9.5973

          k = 0.4990-0.1663 0.5020 (   317 PWs)   bands (ev):

    -3.2649   2.9495   7.8485  10.6328

          k = 0.3327-0.0000 0.3347 (   317 PWs)   bands (ev):

    -5.9977   7.9261   8.6861  12.2550

          k =-0.0000 0.6653 0.0000 (   323 PWs)   bands (ev):

    -3.9874   6.4830   8.1998   8.2217

          k = 0.8317-0.1663 0.8367 (   318 PWs)   bands (ev):

    -1.3427   3.4224   5.7649   7.8750

          k = 0.6653-0.0000 0.6693 (   322 PWs)   bands (ev):

    -0.4211   2.6414   3.9528   8.8560

          k = 0.0000-0.9980 0.0000 (   322 PWs)   bands (ev):

     0.7890   0.7963   7.1966   7.2067

          k =-0.0000-0.0000 0.3347 (   315 PWs)   bands (ev):

    -7.0222  10.9401  10.9758  11.5434

          k =-0.3327 0.3327 0.0000 (   317 PWs)   bands (ev):

    -6.0102   7.9582   8.7547  12.1639

          k = 0.4990-0.4990 0.8367 (   317 PWs)   bands (ev):

    -3.2876   2.9910   7.9422  10.5313

          k = 0.3327-0.3327 0.6693 (   319 PWs)   bands (ev):

    -2.1321   1.4092   8.6726   9.4995

          k = 0.1663-0.1663 0.5020 (   319 PWs)   bands (ev):

    -5.2205   6.3328   9.6385  10.2727

          k = 0.6653-0.3327 1.0040 (   318 PWs)   bands (ev):

    -3.0255   4.9894   6.1881   8.6521

          k = 0.4990-0.1663 0.8367 (   317 PWs)   bands (ev):

    -0.2647   1.7527   5.7195   7.5092

          k = 0.3327-0.0000 0.6693 (   318 PWs)   bands (ev):

    -2.9788   4.9494   6.0969   8.7481

          k =-0.9980-0.3327-0.6693 (   318 PWs)   bands (ev):

    -3.0142   4.9446   6.1340   8.6988

          k =-0.3327-0.9980 0.0000 (   316 PWs)   bands (ev):

     1.3953   1.4078   5.6074   5.6214

          k =-0.8317-0.1663-0.5020 (   316 PWs)   bands (ev):

    -0.2730   1.7292   5.6880   7.5127

          k =-0.0000-0.9980 0.3347 (   312 PWs)   bands (ev):

     1.3960   1.4060   5.5815   5.5931

          k =-0.0000-0.0000 0.6693 (   323 PWs)   bands (ev):

    -3.9387   6.6067   8.1181   8.1417

          k = 0.3327-0.3327 1.0040 (   319 PWs)   bands (ev):

    -0.4483   2.7246   4.0225   8.7546

          k = 0.1663-0.1663 0.8367 (   318 PWs)   bands (ev):

    -1.2757   3.4673   5.7721   7.7786

          k =-0.6653-0.9980 0.0000 (   320 PWs)   bands (ev):

     1.4609   1.4797   5.5359   5.5586

          k = 0.0000 0.0000-1.0040 (   310 PWs)   bands (ev):

     0.8826   0.8974   7.0998   7.1210

          k = 0.1663 0.1663 0.1673 (   320 PWs)   bands (ev):

    -7.2904   9.8439  12.5877  12.6056

          k =-0.1663-0.1663 0.1673 (   320 PWs)   bands (ev):

    -7.2905   9.8240  12.5823  12.6365

          k = 0.3327 0.3327 0.3347 (   308 PWs)   bands (ev):

    -4.9904   4.1430  11.2473  11.2932

          k =-0.3327-0.3327 0.3347 (   308 PWs)   bands (ev):

    -4.9904   4.1319  11.2370  11.3171

          k =-0.4990-0.4990-0.5020 (   332 PWs)   bands (ev):

    -2.0575  -0.0492  10.7506  10.8080

          k = 0.4990 0.4990-0.5020 (   332 PWs)   bands (ev):

    -2.0507  -0.0650  10.7386  10.8302

          k = 0.1663 0.4990 0.1673 (   320 PWs)   bands (ev):

    -5.2453   6.3533   9.7172  10.1837

          k =-0.1663-0.4990 0.1673 (   320 PWs)   bands (ev):

    -5.2454   6.3399   9.7287  10.1878

          k = 0.4990-0.1663 0.1673 (   320 PWs)   bands (ev):

    -5.2452   6.3660   9.7337  10.1487

          k =-0.6653-0.3327-0.6693 (   319 PWs)   bands (ev):

    -2.1606   1.4291   8.5688   9.5917

          k = 0.6653 0.3327-0.6693 (   319 PWs)   bands (ev):

    -2.1579   1.4167   8.5682   9.6042

          k =-0.3327 0.6653-0.6693 (   319 PWs)   bands (ev):

    -2.1622   1.4372   8.5392   9.6146

          k =-0.4990-0.1663-0.5020 (   317 PWs)   bands (ev):

    -3.2645   2.9437   7.8573  10.6291

          k = 0.4990 0.1663-0.5020 (   317 PWs)   bands (ev):

    -3.2639   2.9319   7.8571  10.6449

          k =-0.1663 0.4990-0.5020 (   317 PWs)   bands (ev):

    -3.2648   2.9483   7.8339  10.6538

          k = 0.3327 0.0000-0.3347 (   317 PWs)   bands (ev):

    -5.9978   7.9081   8.6883  12.2796

          k =-0.8317-0.1663-0.8367 (   318 PWs)   bands (ev):

    -1.3421   3.4145   5.7736   7.8741

          k = 0.8317 0.1663-0.8367 (   318 PWs)   bands (ev):

    -1.3411   3.4067   5.7714   7.8847

          k =-0.1663 0.8317-0.8367 (   318 PWs)   bands (ev):

    -1.3430   3.4295   5.7466   7.8869

          k = 0.6653-0.0000-0.6693 (   322 PWs)   bands (ev):

    -0.4179   2.6313   3.9493   8.8694

          k = 0.3327 0.3327 0.0000 (   317 PWs)   bands (ev):

    -6.0104   7.9214   8.7585  12.2151

          k =-0.4990-0.4990-0.8367 (   317 PWs)   bands (ev):

    -3.2872   2.9829   7.9192  10.5725

          k = 0.4990 0.4990-0.8367 (   317 PWs)   bands (ev):

    -3.2866   2.9723   7.9341  10.5669

          k =-0.3327-0.3327-0.6693 (   319 PWs)   bands (ev):

    -2.1308   1.4041   8.6440   9.5341

          k = 0.3327 0.3327-0.6693 (   319 PWs)   bands (ev):

    -2.1279   1.3906   8.6624   9.5277

          k =-0.1663-0.1663-0.5020 (   319 PWs)   bands (ev):

    -5.2205   6.3304   9.6708  10.2393

          k = 0.1663 0.1663-0.5020 (   319 PWs)   bands (ev):

    -5.2205   6.3138   9.6665  10.2656

          k =-0.6653-0.3327-1.0040 (   318 PWs)   bands (ev):

    -3.0250   4.9605   6.1893   8.6862

          k =-0.4990-0.1663-0.8367 (   317 PWs)   bands (ev):

    -0.2602   1.7438   5.7000   7.5361

          k = 0.4990 0.1663-0.8367 (   317 PWs)   bands (ev):

    -0.2525   1.7245   5.7107   7.5382

          k =-0.1663 0.4990-0.8367 (   317 PWs)   bands (ev):

    -0.2644   1.7537   5.7018   7.5271

          k = 0.3327 0.0000-0.6693 (   318 PWs)   bands (ev):

    -2.9785   4.9353   6.0977   8.7646

          k = 0.9980-0.3327 0.6693 (   318 PWs)   bands (ev):

    -3.0139   4.9306   6.1348   8.7151

          k = 0.8317-0.1663 0.5020 (   316 PWs)   bands (ev):

    -0.2764   1.7410   5.6556   7.5384

          k =-0.1663-0.8317 0.5020 (   316 PWs)   bands (ev):

    -0.2649   1.7108   5.6820   7.5318

          k =-0.3327-0.3327-1.0040 (   319 PWs)   bands (ev):

    -0.4420   2.7042   4.0152   8.7825

          k =-0.1663-0.1663-0.8367 (   318 PWs)   bands (ev):

    -1.2755   3.4740   5.7424   7.8027

          k = 0.1663 0.1663-0.8367 (   318 PWs)   bands (ev):

    -1.2742   3.4583   5.7594   7.8013

     highest occupied level (ev):    13.7141

!    total energy              =     -23.05619898 Ry
     estimated scf accuracy    <          7.6E-09 Ry

     The total energy is the sum of the following terms:
     one-electron contribution =       8.28702054 Ry
     hartree contribution      =       1.88834130 Ry
     xc contribution           =      -7.39537428 Ry
     ewald contribution        =     -25.83618655 Ry

     convergence has been achieved in   3 iterations

     Forces acting on atoms (cartesian axes, Ry/au):

     atom    1 type  1   force =     0.00155964    0.00155964   -0.00324654
     atom    2 type  1   force =    -0.00155964   -0.00155964    0.00324654

     Total force =     0.005551     Total SCF correction =     0.000005


     Computing stress (Cartesian axis) and pressure

          total   stress  (Ry/bohr**3)                   (kbar)     P=        4.26
  -0.00009992   0.00000876  -0.00000411          -14.70        1.29       -0.60
   0.00000876  -0.00009992  -0.00000411            1.29      -14.70       -0.60
  -0.00000411  -0.00000411   0.00028670           -0.60       -0.60       42.18

     Energy error            =      1.7E-05 Ry
     Gradient error          =      3.2E-03 Ry/Bohr

     number of scf cycles    =   2
     number of bfgs steps    =   1

     energy             old  =     -23.0561818631 Ry
     energy             new  =     -23.0561989815 Ry

     CASE: energy            _new < energy            _old

     new trust radius        =       0.0024509520 bohr
     new conv_thr            =            1.0E-10 Ry


ATOMIC_POSITIONS (alat)
C            -0.0002495343       -0.0002495343        0.0004987228
C             0.2502495343        0.2502495343        0.2495012772



     Writing config-only to output data dir ./Diamond.save/
     NEW-OLD atomic charge density approx. for the potential

     total cpu time spent up to now is       13.7 secs

     Self-consistent Calculation

     iteration #  1     ecut=    40.00 Ry     beta= 0.70
     CG style diagonalization
     ethr =  1.00E-06,  avg # of iterations =  3.7

     Threshold (ethr) on eigenvalues was too large:
     Diagonalizing with lowered threshold

     CG style diagonalization
     c_bands:  1 eigenvalues not converged
     c_bands:  1 eigenvalues not converged
     ethr =  1.94E-08,  avg # of iterations =  4.5

     total cpu time spent up to now is       16.3 secs

     total energy              =     -23.05620846 Ry
     estimated scf accuracy    <       0.00000118 Ry

     iteration #  2     ecut=    40.00 Ry     beta= 0.70
     CG style diagonalization
     ethr =  1.48E-08,  avg # of iterations =  3.4

     total cpu time spent up to now is       17.5 secs

     total energy              =     -23.05620858 Ry
     estimated scf accuracy    <       0.00000002 Ry

     iteration #  3     ecut=    40.00 Ry     beta= 0.70
     CG style diagonalization
     ethr =  2.87E-10,  avg # of iterations =  3.9

     total cpu time spent up to now is       18.7 secs

     total energy              =     -23.05620858 Ry
     estimated scf accuracy    <          1.1E-09 Ry

     iteration #  4     ecut=    40.00 Ry     beta= 0.70
     CG style diagonalization
     ethr =  1.43E-11,  avg # of iterations =  3.9

     total cpu time spent up to now is       20.0 secs

     End of self-consistent calculation

          k = 0.0000 0.0000 0.0000 (   331 PWs)   bands (ev):

    -8.0718  13.6182  13.6185  13.7100

          k =-0.1663 0.1663-0.1673 (   320 PWs)   bands (ev):

    -7.2904   9.8447  12.5593  12.6330

          k =-0.3327 0.3327-0.3347 (   308 PWs)   bands (ev):

    -4.9904   4.1432  11.2210  11.3192

          k = 0.4990-0.4990 0.5020 (   332 PWs)   bands (ev):

    -2.0575  -0.0489  10.7244  10.8340

          k =-0.0000 0.3327 0.0000 (   311 PWs)   bands (ev):

    -7.0349  10.9898  11.0385  11.4396

          k =-0.1663 0.4990-0.1673 (   320 PWs)   bands (ev):

    -5.2452   6.3554   9.7242  10.1730

          k = 0.6653-0.3327 0.6693 (   319 PWs)   bands (ev):

    -2.1607   1.4298   8.5585   9.6018

          k = 0.4990-0.1663 0.5020 (   317 PWs)   bands (ev):

    -3.2645   2.9433   7.8493  10.6401

          k = 0.3327-0.0000 0.3347 (   317 PWs)   bands (ev):

    -5.9978   7.9172   8.6872  12.2673

          k =-0.0000 0.6653 0.0000 (   323 PWs)   bands (ev):

    -3.9874   6.4832   8.2012   8.2201

          k = 0.8317-0.1663 0.8367 (   318 PWs)   bands (ev):

    -1.3422   3.4183   5.7641   7.8802

          k = 0.6653-0.0000 0.6693 (   322 PWs)   bands (ev):

    -0.4194   2.6364   3.9510   8.8627

          k = 0.0000-0.9980 0.0000 (   322 PWs)   bands (ev):

     0.7927   0.7927   7.2016   7.2017

          k =-0.0000-0.0000 0.3347 (   315 PWs)   bands (ev):

    -7.0222  10.9582  10.9584  11.5430

          k =-0.3327 0.3327 0.0000 (   317 PWs)   bands (ev):

    -6.0103   7.9398   8.7566  12.1896

          k = 0.4990-0.4990 0.8367 (   317 PWs)   bands (ev):

    -3.2872   2.9843   7.9344  10.5506

          k = 0.3327-0.3327 0.6693 (   319 PWs)   bands (ev):

    -2.1307   1.4033   8.6629   9.5152

          k = 0.1663-0.1663 0.5020 (   319 PWs)   bands (ev):

    -5.2205   6.3275   9.6538  10.2624

          k = 0.6653-0.3327 1.0040 (   318 PWs)   bands (ev):

    -3.0252   4.9749   6.1887   8.6692

          k = 0.4990-0.1663 0.8367 (   317 PWs)   bands (ev):

    -0.2604   1.7436   5.7080   7.5277

          k = 0.3327-0.0000 0.6693 (   318 PWs)   bands (ev):

    -2.9786   4.9424   6.0974   8.7564

          k =-0.9980-0.3327-0.6693 (   318 PWs)   bands (ev):

    -3.0140   4.9377   6.1344   8.7069

          k =-0.3327-0.9980 0.0000 (   316 PWs)   bands (ev):

     1.4016   1.4017   5.6143   5.6144

          k =-0.8317-0.1663-0.5020 (   316 PWs)   bands (ev):

    -0.2726   1.7305   5.6703   7.5304

          k =-0.0000-0.9980 0.3347 (   312 PWs)   bands (ev):

     1.4010   1.4011   5.5872   5.5873

          k =-0.0000-0.0000 0.6693 (   323 PWs)   bands (ev):

    -3.9387   6.6068   8.1299   8.1300

          k = 0.3327-0.3327 1.0040 (   319 PWs)   bands (ev):

    -0.4451   2.7144   4.0188   8.7686

          k = 0.1663-0.1663 0.8367 (   318 PWs)   bands (ev):

    -1.2752   3.4667   5.7615   7.7904

          k =-0.6653-0.9980 0.0000 (   320 PWs)   bands (ev):

     1.4703   1.4704   5.5472   5.5473

          k = 0.0000 0.0000-1.0040 (   310 PWs)   bands (ev):

     0.8900   0.8901   7.1104   7.1105

          k = 0.1663 0.1663 0.1673 (   320 PWs)   bands (ev):

    -7.2904   9.8448  12.5591  12.6331

          k =-0.1663-0.1663 0.1673 (   320 PWs)   bands (ev):

    -7.2904   9.8448  12.5591  12.6330

          k = 0.3327 0.3327 0.3347 (   308 PWs)   bands (ev):

    -4.9904   4.1433  11.2208  11.3194

          k =-0.3327-0.3327 0.3347 (   308 PWs)   bands (ev):

    -4.9904   4.1433  11.2208  11.3193

          k =-0.4990-0.4990-0.5020 (   332 PWs)   bands (ev):

    -2.0575  -0.0489  10.7242  10.8342

          k = 0.4990 0.4990-0.5020 (   332 PWs)   bands (ev):

    -2.0576  -0.0488  10.7242  10.8341

          k = 0.1663 0.4990 0.1673 (   320 PWs)   bands (ev):

    -5.2452   6.3555   9.7242  10.1729

          k =-0.1663-0.4990 0.1673 (   320 PWs)   bands (ev):

    -5.2452   6.3555   9.7242  10.1729

          k = 0.4990-0.1663 0.1673 (   320 PWs)   bands (ev):

    -5.2452   6.3554   9.7241  10.1731

          k =-0.6653-0.3327-0.6693 (   319 PWs)   bands (ev):

    -2.1607   1.4298   8.5584   9.6018

          k = 0.6653 0.3327-0.6693 (   319 PWs)   bands (ev):

    -2.1607   1.4299   8.5584   9.6018

          k =-0.3327 0.6653-0.6693 (   319 PWs)   bands (ev):

    -2.1607   1.4298   8.5585   9.6017

          k =-0.4990-0.1663-0.5020 (   317 PWs)   bands (ev):

    -3.2645   2.9434   7.8493  10.6401

          k = 0.4990 0.1663-0.5020 (   317 PWs)   bands (ev):

    -3.2645   2.9434   7.8493  10.6401

          k =-0.1663 0.4990-0.5020 (   317 PWs)   bands (ev):

    -3.2645   2.9433   7.8494  10.6400

          k = 0.3327 0.0000-0.3347 (   317 PWs)   bands (ev):

    -5.9978   7.9172   8.6872  12.2672

          k =-0.8317-0.1663-0.8367 (   318 PWs)   bands (ev):

    -1.3422   3.4184   5.7641   7.8802

          k = 0.8317 0.1663-0.8367 (   318 PWs)   bands (ev):

    -1.3422   3.4184   5.7641   7.8801

          k =-0.1663 0.8317-0.8367 (   318 PWs)   bands (ev):

    -1.3422   3.4183   5.7642   7.8801

          k = 0.6653-0.0000-0.6693 (   322 PWs)   bands (ev):

    -0.4195   2.6364   3.9510   8.8626

          k = 0.3327 0.3327 0.0000 (   317 PWs)   bands (ev):

    -6.0103   7.9400   8.7566  12.1894

          k =-0.4990-0.4990-0.8367 (   317 PWs)   bands (ev):

    -3.2872   2.9843   7.9345  10.5504

          k = 0.4990 0.4990-0.8367 (   317 PWs)   bands (ev):

    -3.2872   2.9844   7.9344  10.5504

          k =-0.3327-0.3327-0.6693 (   319 PWs)   bands (ev):

    -2.1307   1.4033   8.6631   9.5151

          k = 0.3327 0.3327-0.6693 (   319 PWs)   bands (ev):

    -2.1307   1.4034   8.6630   9.5151

          k =-0.1663-0.1663-0.5020 (   319 PWs)   bands (ev):

    -5.2205   6.3275   9.6537  10.2625

          k = 0.1663 0.1663-0.5020 (   319 PWs)   bands (ev):

    -5.2205   6.3276   9.6537  10.2624

          k =-0.6653-0.3327-1.0040 (   318 PWs)   bands (ev):

    -3.0252   4.9751   6.1887   8.6691

          k =-0.4990-0.1663-0.8367 (   317 PWs)   bands (ev):

    -0.2604   1.7437   5.7081   7.5276

          k = 0.4990 0.1663-0.8367 (   317 PWs)   bands (ev):

    -0.2605   1.7438   5.7080   7.5276

          k =-0.1663 0.4990-0.8367 (   317 PWs)   bands (ev):

    -0.2604   1.7436   5.7081   7.5276

          k = 0.3327 0.0000-0.6693 (   318 PWs)   bands (ev):

    -2.9786   4.9425   6.0974   8.7563

          k = 0.9980-0.3327 0.6693 (   318 PWs)   bands (ev):

    -3.0140   4.9377   6.1344   8.7068

          k = 0.8317-0.1663 0.5020 (   316 PWs)   bands (ev):

    -0.2726   1.7305   5.6704   7.5303

          k =-0.1663-0.8317 0.5020 (   316 PWs)   bands (ev):

    -0.2727   1.7306   5.6703   7.5303

          k =-0.3327-0.3327-1.0040 (   319 PWs)   bands (ev):

    -0.4451   2.7145   4.0188   8.7685

          k =-0.1663-0.1663-0.8367 (   318 PWs)   bands (ev):

    -1.2752   3.4667   5.7616   7.7903

          k = 0.1663 0.1663-0.8367 (   318 PWs)   bands (ev):

    -1.2752   3.4668   5.7616   7.7903

     highest occupied level (ev):    13.7100

!    total energy              =     -23.05620858 Ry
     estimated scf accuracy    <          4.6E-11 Ry

     The total energy is the sum of the following terms:
     one-electron contribution =       8.28703969 Ry
     hartree contribution      =       1.88833095 Ry
     xc contribution           =      -7.39537127 Ry
     ewald contribution        =     -25.83620795 Ry

     convergence has been achieved in   4 iterations

     Forces acting on atoms (cartesian axes, Ry/au):

     atom    1 type  1   force =    -0.00000394   -0.00000394    0.00001188
     atom    2 type  1   force =     0.00000394    0.00000394   -0.00001188

     Total force =     0.000019     Total SCF correction =     0.000008
     SCF correction compared to forces is large: reduce conv_thr to get better values


     Computing stress (Cartesian axis) and pressure

          total   stress  (Ry/bohr**3)                   (kbar)     P=        4.22
  -0.00010023   0.00000007  -0.00000004          -14.74        0.01       -0.01
   0.00000007  -0.00010023  -0.00000004            0.01      -14.74       -0.01
  -0.00000004  -0.00000004   0.00028646           -0.01       -0.01       42.14

     Energy error            =      9.6E-06 Ry
     Gradient error          =      1.2E-05 Ry/Bohr

     bfgs converged in   3 scf cycles and   2 bfgs steps
     (criteria: energy <  1.0E-04 Ry, force <  1.0E-03 Ry/Bohr)

     End of BFGS Geometry Optimization

     Final energy             =     -23.0562085830 Ry

     File ./Diamond.bfgs deleted, as requested
Begin final coordinates

ATOMIC_POSITIONS (alat)
C            -0.0002495343       -0.0002495343        0.0004987228
C             0.2502495343        0.2502495343        0.2495012772
End final coordinates



     Writing all to output data dir ./Diamond.save/
 
     init_run     :      0.76s CPU      0.80s WALL (       1 calls)
     electrons    :     14.92s CPU     18.01s WALL (       3 calls)
     update_pot   :      0.02s CPU      0.03s WALL (       2 calls)
     forces       :      0.13s CPU      0.14s WALL (       3 calls)
     stress       :      0.69s CPU      0.70s WALL (       3 calls)

     Called by init_run:
     wfcinit      :      0.45s CPU      0.47s WALL (       1 calls)
     potinit      :      0.00s CPU      0.01s WALL (       1 calls)
     hinit0       :      0.29s CPU      0.30s WALL (       1 calls)

     Called by electrons:
     c_bands      :     13.23s CPU     16.18s WALL (      14 calls)
     sum_band     :      1.59s CPU      1.66s WALL (      14 calls)
     v_of_rho     :      0.03s CPU      0.03s WALL (      16 calls)
     newd         :      0.06s CPU      0.06s WALL (      16 calls)
     mix_rho      :      0.01s CPU      0.01s WALL (      14 calls)

     Called by c_bands:
     init_us_2    :      0.47s CPU      0.56s WALL (    2380 calls)
     init_us_2:cp :      0.44s CPU      0.53s WALL (    2380 calls)
     ccgdiagg     :     10.55s CPU     11.75s WALL (     952 calls)
     wfcrot       :      2.50s CPU      2.70s WALL (     748 calls)

     Called by *cgdiagg:
     h_psi        :     10.73s CPU     11.83s WALL (   13159 calls)
     s_psi        :      0.48s CPU      0.56s WALL (   25570 calls)

     Called by h_psi:
     h_psi:calbec :      0.45s CPU      0.49s WALL (   13159 calls)
     vloc_psi     :      9.52s CPU     10.46s WALL (   13159 calls)
     add_vuspsi   :      0.27s CPU      0.31s WALL (   13159 calls)
     hs_1psi      :      9.30s CPU     10.31s WALL (   12411 calls)
     s_1psi       :      0.82s CPU      0.93s WALL (   12411 calls)

     General routines
     calbec       :      0.56s CPU      0.65s WALL (   27542 calls)
     fft          :      0.03s CPU      0.05s WALL (      91 calls)
     ffts         :      0.00s CPU      0.00s WALL (      14 calls)
     fftw         :      9.71s CPU     10.64s WALL (   35158 calls)
 
     Parallel routines
 
     PWSCF        :     16.95s CPU     20.81s WALL

 
   This run was terminated on:  23:25:38  14Mar2022            

=------------------------------------------------------------------------------=
   JOB DONE.
=------------------------------------------------------------------------------=
