
     Program PWSCF v.7.0 starts on 14Mar2022 at 23:24:27 

     This program is part of the open-source Quantum ESPRESSO suite
     for quantum simulation of materials; please cite
         "P. Giannozzi et al., J. Phys.:Condens. Matter 21 395502 (2009);
         "P. Giannozzi et al., J. Phys.:Condens. Matter 29 465901 (2017);
         "P. Giannozzi et al., J. Chem. Phys. 152 154105 (2020);
          URL http://www.quantum-espresso.org", 
     in publications or presentations arising from this work. More details at
     http://www.quantum-espresso.org/quote

     Parallel version (MPI), running on     1 processors

     MPI processes distributed on     1 nodes
     90867 MiB available memory on the printing compute node when the environment starts
 
     Waiting for input...
     Reading input from standard input
Warning: card &CELL ignored
Warning: card  CELL_DYNAMICS = 'BFGS', ignored
Warning: card  PRESS=0.1D0, ignored
Warning: card / ignored
     Message from routine read_cards :
     DEPRECATED: no units specified in ATOMIC_POSITIONS card
     Message from routine read_cards :
     ATOMIC_POSITIONS: units set to alat

     Current dimensions of program PWSCF are:
     Max number of different atomic species (ntypx) = 10
     Max number of k-points (npk) =  40000
     Max angular momentum in pseudopotentials (lmaxx) =  4
     Message from routine setup:
     using ibrav=0 with symmetry is DISCOURAGED, use correct ibrav instead

     Subspace diagonalization in iterative solution of the eigenvalue problem:
     a serial algorithm will be used

 
     G-vector sticks info
     --------------------
     sticks:   dense  smooth     PW     G-vecs:    dense   smooth      PW
     Sum         253     253     85                 2589     2589     533
 
     Using Slab Decomposition
 


     bravais-lattice index     =            0
     lattice parameter (alat)  =       6.6720  a.u.
     unit-cell volume          =      74.2484 (a.u.)^3
     number of atoms/cell      =            2
     number of atomic types    =            1
     number of electrons       =         8.00
     number of Kohn-Sham states=            4
     kinetic-energy cutoff     =      40.0000  Ry
     charge density cutoff     =     160.0000  Ry
     scf convergence threshold =      1.0E-08
     mixing beta               =       0.7000
     number of iterations used =            8  plain     mixing
     energy convergence thresh.=      1.0E-04
     force convergence thresh. =      1.0E-03
     Exchange-correlation= SLA  PZ   NOGX NOGC
                           (   1   1   0   0   0   0   0)
     nstep                     =           50


     celldm(1)=   6.672000  celldm(2)=   0.000000  celldm(3)=   0.000000
     celldm(4)=   0.000000  celldm(5)=   0.000000  celldm(6)=   0.000000

     crystal axes: (cart. coord. in units of alat)
               a(1) = (  -0.498000   0.000000   0.504000 )  
               a(2) = (   0.000000   0.498000   0.504000 )  
               a(3) = (  -0.498000   0.498000   0.000000 )  

     reciprocal axes: (cart. coord. in units 2 pi/alat)
               b(1) = ( -1.004016 -1.004016  0.992063 )  
               b(2) = (  1.004016  1.004016  0.992063 )  
               b(3) = ( -1.004016  1.004016 -0.992063 )  


     PseudoPot. # 1 for C  read from file:
     ./C_LDA.UPF
     MD5 check sum: 407c1fe918d93b14b177d5600f28733c
     Pseudo is Ultrasoft + core correction, Zval =  4.0
     Generated by new atomic code, or converted to UPF format
     Using radial grid of  721 points,  4 beta functions with: 
                l(1) =   0
                l(2) =   0
                l(3) =   1
                l(4) =   1
     Q(r) pseudized with  8 coefficients,  rinner =    1.100   1.100   1.100


     atomic species   valence    mass     pseudopotential
        C              4.00    12.01100     C ( 1.00)

      2 Sym. Ops. (no inversion) found



   Cartesian axes

     site n.     atom                  positions (alat units)
         1           C   tau(   1) = (   0.0000000   0.0000000   0.0000000  )
         2           C   tau(   2) = (   0.2500000   0.2500000   0.2500000  )

     number of k points=    68
                       cart. coord. in units 2pi/alat
        k(    1) = (   0.0000000   0.0000000   0.0000000), wk =   0.0092593
        k(    2) = (  -0.1673360   0.1673360  -0.1653439), wk =   0.0370370
        k(    3) = (  -0.3346720   0.3346720  -0.3306878), wk =   0.0370370
        k(    4) = (   0.5020080  -0.5020080   0.4960317), wk =   0.0185185
        k(    5) = (   0.0000000   0.3346720   0.0000000), wk =   0.0370370
        k(    6) = (  -0.1673360   0.5020080  -0.1653439), wk =   0.0370370
        k(    7) = (   0.6693440  -0.3346720   0.6613757), wk =   0.0370370
        k(    8) = (   0.5020080  -0.1673360   0.4960317), wk =   0.0370370
        k(    9) = (   0.3346720  -0.0000000   0.3306878), wk =   0.0370370
        k(   10) = (   0.0000000   0.6693440   0.0000000), wk =   0.0370370
        k(   11) = (   0.8366801  -0.1673360   0.8267196), wk =   0.0370370
        k(   12) = (   0.6693440  -0.0000000   0.6613757), wk =   0.0370370
        k(   13) = (   0.0000000  -1.0040161   0.0000000), wk =   0.0185185
        k(   14) = (   0.0000000   0.0000000   0.3306878), wk =   0.0185185
        k(   15) = (  -0.3346720   0.3346720   0.0000000), wk =   0.0185185
        k(   16) = (   0.5020080  -0.5020080   0.8267196), wk =   0.0370370
        k(   17) = (   0.3346720  -0.3346720   0.6613757), wk =   0.0370370
        k(   18) = (   0.1673360  -0.1673360   0.4960317), wk =   0.0370370
        k(   19) = (   0.6693440  -0.3346720   0.9920635), wk =   0.0370370
        k(   20) = (   0.5020080  -0.1673360   0.8267196), wk =   0.0370370
        k(   21) = (   0.3346720  -0.0000000   0.6613757), wk =   0.0370370
        k(   22) = (  -1.0040161  -0.3346720  -0.6613757), wk =   0.0370370
        k(   23) = (  -0.3346720  -1.0040161   0.0000000), wk =   0.0370370
        k(   24) = (  -0.8366801  -0.1673360  -0.4960317), wk =   0.0185185
        k(   25) = (   0.0000000  -1.0040161   0.3306878), wk =   0.0370370
        k(   26) = (   0.0000000   0.0000000   0.6613757), wk =   0.0185185
        k(   27) = (   0.3346720  -0.3346720   0.9920635), wk =   0.0185185
        k(   28) = (   0.1673360  -0.1673360   0.8267196), wk =   0.0370370
        k(   29) = (  -0.6693440  -1.0040161   0.0000000), wk =   0.0370370
        k(   30) = (   0.0000000   0.0000000  -0.9920635), wk =   0.0092593
        k(   31) = (   0.1673360   0.1673360   0.1653439), wk =   0.0185185
        k(   32) = (  -0.1673360  -0.1673360   0.1653439), wk =   0.0185185
        k(   33) = (   0.3346720   0.3346720   0.3306878), wk =   0.0185185
        k(   34) = (  -0.3346720  -0.3346720   0.3306878), wk =   0.0185185
        k(   35) = (  -0.5020080  -0.5020080  -0.4960317), wk =   0.0092593
        k(   36) = (   0.5020080   0.5020080  -0.4960317), wk =   0.0092593
        k(   37) = (   0.1673360   0.5020080   0.1653439), wk =   0.0370370
        k(   38) = (  -0.1673360  -0.5020080   0.1653439), wk =   0.0370370
        k(   39) = (   0.5020080  -0.1673360   0.1653439), wk =   0.0370370
        k(   40) = (  -0.6693440  -0.3346720  -0.6613757), wk =   0.0370370
        k(   41) = (   0.6693440   0.3346720  -0.6613757), wk =   0.0370370
        k(   42) = (  -0.3346720   0.6693440  -0.6613757), wk =   0.0370370
        k(   43) = (  -0.5020080  -0.1673360  -0.4960317), wk =   0.0370370
        k(   44) = (   0.5020080   0.1673360  -0.4960317), wk =   0.0370370
        k(   45) = (  -0.1673360   0.5020080  -0.4960317), wk =   0.0370370
        k(   46) = (   0.3346720   0.0000000  -0.3306878), wk =   0.0370370
        k(   47) = (  -0.8366801  -0.1673360  -0.8267196), wk =   0.0370370
        k(   48) = (   0.8366801   0.1673360  -0.8267196), wk =   0.0370370
        k(   49) = (  -0.1673360   0.8366801  -0.8267196), wk =   0.0370370
        k(   50) = (   0.6693440   0.0000000  -0.6613757), wk =   0.0370370
        k(   51) = (   0.3346720   0.3346720  -0.0000000), wk =   0.0185185
        k(   52) = (  -0.5020080  -0.5020080  -0.8267196), wk =   0.0185185
        k(   53) = (   0.5020080   0.5020080  -0.8267196), wk =   0.0185185
        k(   54) = (  -0.3346720  -0.3346720  -0.6613757), wk =   0.0185185
        k(   55) = (   0.3346720   0.3346720  -0.6613757), wk =   0.0185185
        k(   56) = (  -0.1673360  -0.1673360  -0.4960317), wk =   0.0185185
        k(   57) = (   0.1673360   0.1673360  -0.4960317), wk =   0.0185185
        k(   58) = (  -0.6693440  -0.3346720  -0.9920635), wk =   0.0370370
        k(   59) = (  -0.5020080  -0.1673360  -0.8267196), wk =   0.0370370
        k(   60) = (   0.5020080   0.1673360  -0.8267196), wk =   0.0370370
        k(   61) = (  -0.1673360   0.5020080  -0.8267196), wk =   0.0370370
        k(   62) = (   0.3346720   0.0000000  -0.6613757), wk =   0.0370370
        k(   63) = (   1.0040161  -0.3346720   0.6613757), wk =   0.0370370
        k(   64) = (   0.8366801  -0.1673360   0.4960317), wk =   0.0370370
        k(   65) = (  -0.1673360  -0.8366801   0.4960317), wk =   0.0185185
        k(   66) = (  -0.3346720  -0.3346720  -0.9920635), wk =   0.0185185
        k(   67) = (  -0.1673360  -0.1673360  -0.8267196), wk =   0.0185185
        k(   68) = (   0.1673360   0.1673360  -0.8267196), wk =   0.0185185

     Dense  grid:     2589 G-vectors     FFT dimensions: (  20,  20,  20)

     Estimated max dynamical RAM per process >       5.30 MB

     Initial potential from superposition of free atoms

     starting charge       7.9999, renormalised to       8.0000
     Starting wfcs are    8 randomized atomic wfcs

     total cpu time spent up to now is        1.2 secs

     Self-consistent Calculation

     iteration #  1     ecut=    40.00 Ry     beta= 0.70
     CG style diagonalization
     ethr =  1.00E-02,  avg # of iterations =  3.0

     total cpu time spent up to now is        2.3 secs

     total energy              =     -23.03896464 Ry
     estimated scf accuracy    <       0.14165153 Ry

     iteration #  2     ecut=    40.00 Ry     beta= 0.70
     CG style diagonalization
     ethr =  1.77E-03,  avg # of iterations =  3.6

     total cpu time spent up to now is        3.5 secs

     total energy              =     -23.05541275 Ry
     estimated scf accuracy    <       0.00146400 Ry

     iteration #  3     ecut=    40.00 Ry     beta= 0.70
     CG style diagonalization
     ethr =  1.83E-05,  avg # of iterations =  4.0

     total cpu time spent up to now is        4.8 secs

     total energy              =     -23.05590599 Ry
     estimated scf accuracy    <       0.00004720 Ry

     iteration #  4     ecut=    40.00 Ry     beta= 0.70
     CG style diagonalization
     ethr =  5.90E-07,  avg # of iterations =  4.0

     total cpu time spent up to now is        6.1 secs

     total energy              =     -23.05592284 Ry
     estimated scf accuracy    <       0.00000210 Ry

     iteration #  5     ecut=    40.00 Ry     beta= 0.70
     CG style diagonalization
     ethr =  2.63E-08,  avg # of iterations =  4.0

     total cpu time spent up to now is        7.4 secs

     total energy              =     -23.05592357 Ry
     estimated scf accuracy    <       0.00000002 Ry

     iteration #  6     ecut=    40.00 Ry     beta= 0.70
     CG style diagonalization
     ethr =  2.22E-10,  avg # of iterations =  4.6

     total cpu time spent up to now is        8.8 secs

     End of self-consistent calculation

          k = 0.0000 0.0000 0.0000 (   331 PWs)   bands (ev):

    -8.0716  13.4765  13.6502  13.8234

          k =-0.1673 0.1673-0.1653 (   320 PWs)   bands (ev):

    -7.2900   9.8768  12.5224  12.6308

          k =-0.3347 0.3347-0.3307 (   312 PWs)   bands (ev):

    -4.9900   4.1628  11.1949  11.3243

          k = 0.5020-0.5020 0.4960 (   328 PWs)   bands (ev):

    -2.0686  -0.0211  10.6991  10.8442

          k = 0.0000 0.3347 0.0000 (   315 PWs)   bands (ev):

    -7.0220  10.8958  11.0079  11.5591

          k =-0.1673 0.5020-0.1653 (   317 PWs)   bands (ev):

    -5.2202   6.3511   9.6348  10.2580

          k = 0.6693-0.3347 0.6614 (   319 PWs)   bands (ev):

    -2.1352   1.4257   8.6643   9.4957

          k = 0.5020-0.1673 0.4960 (   317 PWs)   bands (ev):

    -3.2877   3.0048   7.9356  10.5240

          k = 0.3347-0.0000 0.3307 (   318 PWs)   bands (ev):

    -6.0097   7.9699   8.7526  12.1500

          k = 0.0000 0.6693 0.0000 (   319 PWs)   bands (ev):

    -3.9385   6.6047   8.1064   8.1602

          k = 0.8367-0.1673 0.8267 (   319 PWs)   bands (ev):

    -1.2770   3.4821   5.7653   7.7743

          k = 0.6693-0.0000 0.6614 (   318 PWs)   bands (ev):

    -0.4495   2.7320   4.0248   8.7473

          k = 0.0000-1.0040 0.0000 (   314 PWs)   bands (ev):

     0.8773   0.9027   7.0957   7.1297

          k = 0.0000 0.0000 0.3307 (   307 PWs)   bands (ev):

    -7.0472  11.0028  11.1289  11.3451

          k =-0.3347 0.3347 0.0000 (   317 PWs)   bands (ev):

    -5.9847   7.9579   8.6117  12.2618

          k = 0.5020-0.5020 0.8267 (   316 PWs)   bands (ev):

    -3.2430   2.9259   7.7915  10.6679

          k = 0.3347-0.3347 0.6614 (   317 PWs)   bands (ev):

    -2.1944   1.4762   8.4872   9.6375

          k = 0.1673-0.1673 0.4960 (   320 PWs)   bands (ev):

    -5.2693   6.3982   9.7445  10.1212

          k = 0.6693-0.3347 0.9921 (   318 PWs)   bands (ev):

    -2.9683   4.9548   6.0417   8.7394

          k = 0.5020-0.1673 0.8267 (   317 PWs)   bands (ev):

    -0.2885   1.7628   5.7066   7.4746

          k = 0.3347-0.0000 0.6614 (   318 PWs)   bands (ev):

    -3.0601   4.9911   6.2236   8.5980

          k =-1.0040-0.3347-0.6614 (   320 PWs)   bands (ev):

    -2.9898   5.0049   6.1506   8.6915

          k =-0.3347-1.0040 0.0000 (   312 PWs)   bands (ev):

     1.4464   1.4917   5.4992   5.5473

          k =-0.8367-0.1673-0.4960 (   316 PWs)   bands (ev):

    -0.2475   1.7532   5.8095   7.4617

          k = 0.0000-1.0040 0.3307 (   318 PWs)   bands (ev):

     1.4545   1.4893   5.5556   5.5950

          k = 0.0000 0.0000 0.6614 (   323 PWs)   bands (ev):

    -4.0351   6.3589   8.2541   8.3311

          k = 0.3347-0.3347 0.9921 (   321 PWs)   bands (ev):

    -0.4068   2.5948   3.8988   8.9121

          k = 0.1673-0.1673 0.8267 (   320 PWs)   bands (ev):

    -1.4093   3.3650   5.8098   7.9324

          k =-0.6693-1.0040 0.0000 (   312 PWs)   bands (ev):

     1.3000   1.3642   5.6194   5.6937

          k = 0.0000 0.0000-0.9921 (   318 PWs)   bands (ev):

     0.6714   0.7227   7.2589   7.3285

          k = 0.1673 0.1673 0.1653 (   320 PWs)   bands (ev):

    -7.2901   9.8463  12.4279  12.7657

          k =-0.1673-0.1673 0.1653 (   320 PWs)   bands (ev):

    -7.2904   9.7760  12.5358  12.7468

          k = 0.3347 0.3347 0.3307 (   312 PWs)   bands (ev):

    -4.9899   4.1442  11.0832  11.4586

          k =-0.3347-0.3347 0.3307 (   312 PWs)   bands (ev):

    -4.9900   4.1059  11.1649  11.4226

          k =-0.5020-0.5020-0.4960 (   328 PWs)   bands (ev):

    -2.0566  -0.0483  10.5814  10.9794

          k = 0.5020 0.5020-0.4960 (   328 PWs)   bands (ev):

    -2.0332  -0.1027  10.6571  10.9377

          k = 0.1673 0.5020 0.1653 (   317 PWs)   bands (ev):

    -5.2202   6.3231   9.6086  10.3217

          k =-0.1673-0.5020 0.1653 (   317 PWs)   bands (ev):

    -5.2204   6.2769   9.6610  10.3225

          k = 0.5020-0.1673 0.1653 (   317 PWs)   bands (ev):

    -5.2200   6.3623   9.6897  10.1813

          k =-0.6693-0.3347-0.6614 (   319 PWs)   bands (ev):

    -2.1298   1.4024   8.6766   9.5042

          k = 0.6693 0.3347-0.6614 (   319 PWs)   bands (ev):

    -2.1204   1.3598   8.6867   9.5337

          k =-0.3347 0.6693-0.6614 (   319 PWs)   bands (ev):

    -2.1356   1.4290   8.5989   9.5599

          k =-0.5020-0.1673-0.4960 (   317 PWs)   bands (ev):

    -3.2865   2.9870   7.9552  10.5197

          k = 0.5020 0.1673-0.4960 (   317 PWs)   bands (ev):

    -3.2844   2.9465   7.9582  10.5698

          k =-0.1673 0.5020-0.4960 (   317 PWs)   bands (ev):

    -3.2876   3.0010   7.8835  10.5970

          k = 0.3347 0.0000-0.3307 (   318 PWs)   bands (ev):

    -6.0101   7.9068   8.7624  12.2327

          k =-0.8367-0.1673-0.8267 (   319 PWs)   bands (ev):

    -1.2744   3.4543   5.7937   7.7734

          k = 0.8367 0.1673-0.8267 (   319 PWs)   bands (ev):

    -1.2709   3.4258   5.7889   7.8080

          k =-0.1673 0.8367-0.8267 (   319 PWs)   bands (ev):

    -1.2778   3.5074   5.7015   7.8145

          k = 0.6693 0.0000-0.6614 (   318 PWs)   bands (ev):

    -0.4392   2.6971   4.0142   8.7924

          k = 0.3347 0.3347-0.0000 (   317 PWs)   bands (ev):

    -5.9854   7.8340   8.6271  12.4319

          k =-0.5020-0.5020-0.8267 (   316 PWs)   bands (ev):

    -3.2412   2.8997   7.7151  10.8048

          k = 0.5020 0.5020-0.8267 (   316 PWs)   bands (ev):

    -3.2391   2.8632   7.7660  10.7852

          k =-0.3347-0.3347-0.6614 (   317 PWs)   bands (ev):

    -2.1903   1.4606   8.3930   9.7511

          k = 0.3347 0.3347-0.6614 (   317 PWs)   bands (ev):

    -2.1810   1.4149   8.4556   9.7293

          k =-0.1673-0.1673-0.4960 (   320 PWs)   bands (ev):

    -5.2692   6.3955   9.8550  10.0024

          k = 0.1673 0.1673-0.4960 (   320 PWs)   bands (ev):

    -5.2696   6.3363   9.8401  10.0935

          k =-0.6693-0.3347-0.9921 (   318 PWs)   bands (ev):

    -2.9662   4.8571   6.0481   8.8527

          k =-0.5020-0.1673-0.8267 (   317 PWs)   bands (ev):

    -0.2733   1.7349   5.6310   7.5729

          k = 0.5020 0.1673-0.8267 (   317 PWs)   bands (ev):

    -0.2468   1.6681   5.6726   7.5753

          k =-0.1673 0.5020-0.8267 (   317 PWs)   bands (ev):

    -0.2874   1.7659   5.6503   7.5314

          k = 0.3347 0.0000-0.6614 (   318 PWs)   bands (ev):

    -3.0593   4.9426   6.2279   8.6523

          k = 1.0040-0.3347 0.6614 (   320 PWs)   bands (ev):

    -2.9890   4.9561   6.1546   8.7471

          k = 0.8367-0.1673 0.4960 (   316 PWs)   bands (ev):

    -0.2592   1.7918   5.7007   7.5495

          k =-0.1673-0.8367 0.4960 (   316 PWs)   bands (ev):

    -0.2198   1.6900   5.7883   7.5274

          k =-0.3347-0.3347-0.9921 (   321 PWs)   bands (ev):

    -0.3829   2.5248   3.8742   9.0046

          k =-0.1673-0.1673-0.8267 (   320 PWs)   bands (ev):

    -1.4088   3.3878   5.7122   8.0117

          k = 0.1673 0.1673-0.8267 (   320 PWs)   bands (ev):

    -1.4048   3.3394   5.7649   8.0070

     highest occupied level (ev):    13.8234

!    total energy              =     -23.05592359 Ry
     estimated scf accuracy    <          9.5E-11 Ry

     The total energy is the sum of the following terms:
     one-electron contribution =       8.28809534 Ry
     hartree contribution      =       1.88804787 Ry
     xc contribution           =      -7.39537439 Ry
     ewald contribution        =     -25.83669241 Ry

     convergence has been achieved in   6 iterations

     Forces acting on atoms (cartesian axes, Ry/au):

     atom    1 type  1   force =     0.00549419    0.00549419   -0.01067835
     atom    2 type  1   force =    -0.00549419   -0.00549419    0.01067835

     Total force =     0.018676     Total SCF correction =     0.000003


     Computing stress (Cartesian axis) and pressure

          total   stress  (Ry/bohr**3)                   (kbar)     P=        4.65
   0.00029372   0.00002865  -0.00001618           43.21        4.21       -2.38
   0.00002865   0.00029372  -0.00001618            4.21       43.21       -2.38
  -0.00001618  -0.00001618  -0.00049265           -2.38       -2.38      -72.47


     BFGS Geometry Optimization
     Energy error            =      0.0E+00 Ry
     Gradient error          =      1.1E-02 Ry/Bohr

     number of scf cycles    =   1
     number of bfgs steps    =   0

     energy             new  =     -23.0559235934 Ry

     new trust radius        =       0.0132060371 bohr
     new conv_thr            =       0.0000000100 Ry


ATOMIC_POSITIONS (alat)
C             0.0008234704        0.0008234704       -0.0016004715
C             0.2491765296        0.2491765296        0.2516004715



     Writing config-only to output data dir ./Diamond.save/
     NEW-OLD atomic charge density approx. for the potential

     total cpu time spent up to now is        9.2 secs

     Self-consistent Calculation

     iteration #  1     ecut=    40.00 Ry     beta= 0.70
     CG style diagonalization
     c_bands:  1 eigenvalues not converged
     c_bands:  1 eigenvalues not converged
     c_bands:  1 eigenvalues not converged
     c_bands:  1 eigenvalues not converged
     c_bands:  1 eigenvalues not converged
     ethr =  1.00E-06,  avg # of iterations =  6.5

     total cpu time spent up to now is       11.2 secs

     total energy              =     -23.05598330 Ry
     estimated scf accuracy    <       0.00003629 Ry

     iteration #  2     ecut=    40.00 Ry     beta= 0.70
     CG style diagonalization
     ethr =  4.54E-07,  avg # of iterations =  3.6

     total cpu time spent up to now is       12.3 secs

     total energy              =     -23.05598986 Ry
     estimated scf accuracy    <       0.00000060 Ry

     iteration #  3     ecut=    40.00 Ry     beta= 0.70
     CG style diagonalization
     ethr =  7.48E-09,  avg # of iterations =  3.8

     total cpu time spent up to now is       13.6 secs

     total energy              =     -23.05599004 Ry
     estimated scf accuracy    <       0.00000003 Ry

     iteration #  4     ecut=    40.00 Ry     beta= 0.70
     CG style diagonalization
     ethr =  3.91E-10,  avg # of iterations =  3.8

     total cpu time spent up to now is       14.8 secs

     End of self-consistent calculation

          k = 0.0000 0.0000 0.0000 (   331 PWs)   bands (ev):

    -8.0716  13.5159  13.6450  13.7886

          k =-0.1673 0.1673-0.1653 (   320 PWs)   bands (ev):

    -7.2901   9.8250  12.4929  12.7279

          k =-0.3347 0.3347-0.3307 (   312 PWs)   bands (ev):

    -4.9898   4.1328  11.1390  11.4166

          k = 0.5020-0.5020 0.4960 (   328 PWs)   bands (ev):

    -2.0496  -0.0645  10.6355  10.9353

          k = 0.0000 0.3347 0.0000 (   315 PWs)   bands (ev):

    -7.0219  10.9060  11.0066  11.5503

          k =-0.1673 0.5020-0.1653 (   317 PWs)   bands (ev):

    -5.2201   6.3152   9.6562  10.2785

          k = 0.6693-0.3347 0.6614 (   319 PWs)   bands (ev):

    -2.1271   1.3915   8.6508   9.5413

          k = 0.5020-0.1673 0.4960 (   317 PWs)   bands (ev):

    -3.2857   2.9729   7.9305  10.5716

          k = 0.3347-0.0000 0.3307 (   318 PWs)   bands (ev):

    -6.0099   7.9200   8.7590  12.2182

          k = 0.0000 0.6693 0.0000 (   319 PWs)   bands (ev):

    -3.9384   6.6068   8.1089   8.1557

          k = 0.8367-0.1673 0.8267 (   319 PWs)   bands (ev):

    -1.2737   3.4592   5.7588   7.8046

          k = 0.6693-0.0000 0.6614 (   318 PWs)   bands (ev):

    -0.4407   2.7041   4.0152   8.7846

          k = 0.0000-1.0040 0.0000 (   314 PWs)   bands (ev):

     0.8826   0.8980   7.1009   7.1239

          k = 0.0000 0.0000 0.3307 (   307 PWs)   bands (ev):

    -7.0471  11.0367  11.1001  11.3405

          k =-0.3347 0.3347 0.0000 (   317 PWs)   bands (ev):

    -5.9852   7.8598   8.6230  12.3982

          k = 0.5020-0.5020 0.8267 (   316 PWs)   bands (ev):

    -3.2406   2.8905   7.7505  10.7700

          k = 0.3347-0.3347 0.6614 (   317 PWs)   bands (ev):

    -2.1872   1.4455   8.4365   9.7202

          k = 0.1673-0.1673 0.4960 (   320 PWs)   bands (ev):

    -5.2693   6.3726   9.8251  10.0645

          k = 0.6693-0.3347 0.9921 (   318 PWs)   bands (ev):

    -2.9664   4.8771   6.0463   8.8303

          k = 0.5020-0.1673 0.8267 (   317 PWs)   bands (ev):

    -0.2651   1.7152   5.6396   7.5778

          k = 0.3347-0.0000 0.6614 (   318 PWs)   bands (ev):

    -3.0593   4.9519   6.2266   8.6429

          k =-1.0040-0.3347-0.6614 (   320 PWs)   bands (ev):

    -2.9890   4.9659   6.1529   8.7373

          k =-0.3347-1.0040 0.0000 (   312 PWs)   bands (ev):

     1.4557   1.4830   5.5077   5.5384

          k =-0.8367-0.1673-0.4960 (   316 PWs)   bands (ev):

    -0.2451   1.7576   5.7140   7.5594

          k = 0.0000-1.0040 0.3307 (   318 PWs)   bands (ev):

     1.4617   1.4830   5.5618   5.5881

          k = 0.0000 0.0000 0.6614 (   323 PWs)   bands (ev):

    -4.0350   6.3594   8.2688   8.3162

          k = 0.3347-0.3347 0.9921 (   321 PWs)   bands (ev):

    -0.3874   2.5392   3.8787   8.9865

          k = 0.1673-0.1673 0.8267 (   320 PWs)   bands (ev):

    -1.4071   3.3639   5.7527   7.9943

          k =-0.6693-1.0040 0.0000 (   312 PWs)   bands (ev):

     1.3132   1.3512   5.6341   5.6792

          k = 0.0000 0.0000-0.9921 (   318 PWs)   bands (ev):

     0.6820   0.7124   7.2727   7.3149

          k = 0.1673 0.1673 0.1653 (   320 PWs)   bands (ev):

    -7.2901   9.8416  12.5847  12.6143

          k =-0.1673-0.1673 0.1653 (   320 PWs)   bands (ev):

    -7.2899   9.8874  12.5137  12.6260

          k = 0.3347 0.3347 0.3307 (   312 PWs)   bands (ev):

    -4.9899   4.1431  11.2266  11.3168

          k =-0.3347-0.3347 0.3307 (   312 PWs)   bands (ev):

    -4.9898   4.1678  11.1731  11.3394

          k =-0.5020-0.5020-0.4960 (   328 PWs)   bands (ev):

    -2.0564  -0.0492  10.7240  10.8375

          k = 0.5020 0.5020-0.4960 (   328 PWs)   bands (ev):

    -2.0710  -0.0146  10.6744  10.8637

          k = 0.1673 0.5020 0.1653 (   317 PWs)   bands (ev):

    -5.2201   6.3307   9.6735  10.2406

          k =-0.1673-0.5020 0.1653 (   317 PWs)   bands (ev):

    -5.2200   6.3607   9.6438  10.2351

          k = 0.5020-0.1673 0.1653 (   317 PWs)   bands (ev):

    -5.2202   6.3082   9.6269  10.3217

          k =-0.6693-0.3347-0.6614 (   319 PWs)   bands (ev):

    -2.1301   1.4044   8.6443   9.5364

          k = 0.6693 0.3347-0.6614 (   319 PWs)   bands (ev):

    -2.1362   1.4319   8.6424   9.5118

          k =-0.3347 0.6693-0.6614 (   319 PWs)   bands (ev):

    -2.1268   1.3894   8.6967   9.4958

          k =-0.5020-0.1673-0.4960 (   317 PWs)   bands (ev):

    -3.2863   2.9827   7.9199  10.5738

          k = 0.5020 0.1673-0.4960 (   317 PWs)   bands (ev):

    -3.2878   3.0089   7.9192  10.5393

          k =-0.1673 0.5020-0.4960 (   317 PWs)   bands (ev):

    -3.2858   2.9753   7.9654  10.5227

          k = 0.3347 0.0000-0.3307 (   318 PWs)   bands (ev):

    -6.0096   7.9582   8.7564  12.1628

          k =-0.8367-0.1673-0.8267 (   319 PWs)   bands (ev):

    -1.2751   3.4748   5.7430   7.8051

          k = 0.8367 0.1673-0.8267 (   319 PWs)   bands (ev):

    -1.2774   3.4932   5.7471   7.7814

          k =-0.1673 0.8367-0.8267 (   319 PWs)   bands (ev):

    -1.2731   3.4434   5.8005   7.7773

          k = 0.6693 0.0000-0.6614 (   318 PWs)   bands (ev):

    -0.4474   2.7256   4.0237   8.7543

          k = 0.3347 0.3347-0.0000 (   317 PWs)   bands (ev):

    -5.9847   7.9328   8.6157  12.2952

          k =-0.5020-0.5020-0.8267 (   316 PWs)   bands (ev):

    -3.2416   2.9053   7.7981  10.6867

          k = 0.5020 0.5020-0.8267 (   316 PWs)   bands (ev):

    -3.2430   2.9290   7.7651  10.6990

          k =-0.3347-0.3347-0.6614 (   317 PWs)   bands (ev):

    -2.1895   1.4538   8.4960   9.6499

          k = 0.3347 0.3347-0.6614 (   317 PWs)   bands (ev):

    -2.1954   1.4833   8.4553   9.6638

          k =-0.1673-0.1673-0.4960 (   320 PWs)   bands (ev):

    -5.2694   6.3730   9.7642  10.1322

          k = 0.1673 0.1673-0.4960 (   320 PWs)   bands (ev):

    -5.2691   6.4112   9.7737  10.0729

          k =-0.6693-0.3347-0.9921 (   318 PWs)   bands (ev):

    -2.9677   4.9351   6.0435   8.7617

          k =-0.5020-0.1673-0.8267 (   317 PWs)   bands (ev):

    -0.2739   1.7305   5.6865   7.5182

          k = 0.5020 0.1673-0.8267 (   317 PWs)   bands (ev):

    -0.2903   1.7731   5.6601   7.5158

          k =-0.1673 0.5020-0.8267 (   317 PWs)   bands (ev):

    -0.2659   1.7132   5.6750   7.5419

          k = 0.3347 0.0000-0.6614 (   318 PWs)   bands (ev):

    -3.0598   4.9822   6.2261   8.6063

          k = 1.0040-0.3347 0.6614 (   320 PWs)   bands (ev):

    -2.9895   4.9963   6.1526   8.6999

          k = 0.8367-0.1673 0.4960 (   316 PWs)   bands (ev):

    -0.2386   1.7358   5.7792   7.5055

          k =-0.1673-0.8367 0.4960 (   316 PWs)   bands (ev):

    -0.2624   1.7979   5.7274   7.5166

          k =-0.3347-0.3347-0.9921 (   321 PWs)   bands (ev):

    -0.4017   2.5807   3.8942   8.9304

          k =-0.1673-0.1673-0.8267 (   320 PWs)   bands (ev):

    -1.4074   3.3495   5.8127   7.9460

          k = 0.1673 0.1673-0.8267 (   320 PWs)   bands (ev):

    -1.4099   3.3802   5.7790   7.9490

     highest occupied level (ev):    13.7886

!    total energy              =     -23.05599005 Ry
     estimated scf accuracy    <          6.7E-11 Ry

     The total energy is the sum of the following terms:
     one-electron contribution =       8.28820851 Ry
     hartree contribution      =       1.88801752 Ry
     xc contribution           =      -7.39536779 Ry
     ewald contribution        =     -25.83684829 Ry

     convergence has been achieved in   4 iterations

     Forces acting on atoms (cartesian axes, Ry/au):

     atom    1 type  1   force =    -0.00342340   -0.00342340    0.00634543
     atom    2 type  1   force =     0.00342340    0.00342340   -0.00634543

     Total force =     0.011287     Total SCF correction =     0.000006


     Computing stress (Cartesian axis) and pressure

          total   stress  (Ry/bohr**3)                   (kbar)     P=        4.52
   0.00029273  -0.00001650   0.00000904           43.06       -2.43        1.33
  -0.00001650   0.00029273   0.00000904           -2.43       43.06        1.33
   0.00000904   0.00000904  -0.00049326            1.33        1.33      -72.56

     Energy error            =      6.6E-05 Ry
     Gradient error          =      6.3E-03 Ry/Bohr

     number of scf cycles    =   2
     number of bfgs steps    =   1

     energy             old  =     -23.0559235934 Ry
     energy             new  =     -23.0559900473 Ry

     CASE: energy            _new < energy            _old

     new trust radius        =       0.0049743136 bohr
     new conv_thr            =            1.0E-10 Ry


ATOMIC_POSITIONS (alat)
C             0.0005036881        0.0005036881       -0.0010077453
C             0.2494963119        0.2494963119        0.2510077453



     Writing config-only to output data dir ./Diamond.save/
     NEW-OLD atomic charge density approx. for the potential

     total cpu time spent up to now is       15.2 secs

     Self-consistent Calculation

     iteration #  1     ecut=    40.00 Ry     beta= 0.70
     CG style diagonalization
     c_bands:  1 eigenvalues not converged
     ethr =  1.00E-06,  avg # of iterations =  5.0

     Threshold (ethr) on eigenvalues was too large:
     Diagonalizing with lowered threshold

     CG style diagonalization
     ethr =  6.17E-08,  avg # of iterations =  3.1

     total cpu time spent up to now is       17.9 secs

     total energy              =     -23.05602954 Ry
     estimated scf accuracy    <       0.00000504 Ry

     iteration #  2     ecut=    40.00 Ry     beta= 0.70
     CG style diagonalization
     ethr =  6.30E-08,  avg # of iterations =  3.5

     total cpu time spent up to now is       19.0 secs

     total energy              =     -23.05603006 Ry
     estimated scf accuracy    <       0.00000009 Ry

     iteration #  3     ecut=    40.00 Ry     beta= 0.70
     CG style diagonalization
     ethr =  1.10E-09,  avg # of iterations =  3.8

     total cpu time spent up to now is       20.3 secs

     total energy              =     -23.05603008 Ry
     estimated scf accuracy    <          4.4E-09 Ry

     iteration #  4     ecut=    40.00 Ry     beta= 0.70
     CG style diagonalization
     ethr =  5.46E-11,  avg # of iterations =  3.8

     total cpu time spent up to now is       21.5 secs

     End of self-consistent calculation

          k = 0.0000 0.0000 0.0000 (   331 PWs)   bands (ev):

    -8.0715  13.5254  13.7110  13.7127

          k =-0.1673 0.1673-0.1653 (   320 PWs)   bands (ev):

    -7.2900   9.8449  12.5231  12.6721

          k =-0.3347 0.3347-0.3307 (   312 PWs)   bands (ev):

    -4.9897   4.1441  11.1709  11.3711

          k = 0.5020-0.5020 0.4960 (   328 PWs)   bands (ev):

    -2.0564  -0.0483  10.6686  10.8918

          k = 0.0000 0.3347 0.0000 (   315 PWs)   bands (ev):

    -7.0218  10.9099  11.0086  11.5446

          k =-0.1673 0.5020-0.1653 (   317 PWs)   bands (ev):

    -5.2200   6.3288   9.6514  10.2678

          k = 0.6693-0.3347 0.6614 (   319 PWs)   bands (ev):

    -2.1299   1.4042   8.6596   9.5205

          k = 0.5020-0.1673 0.4960 (   317 PWs)   bands (ev):

    -3.2863   2.9849   7.9341  10.5517

          k = 0.3347-0.0000 0.3307 (   318 PWs)   bands (ev):

    -6.0097   7.9394   8.7579  12.1903

          k = 0.0000 0.6693 0.0000 (   319 PWs)   bands (ev):

    -3.9382   6.6080   8.1127   8.1508

          k = 0.8367-0.1673 0.8267 (   319 PWs)   bands (ev):

    -1.2746   3.4678   5.7624   7.7920

          k = 0.6693-0.0000 0.6614 (   318 PWs)   bands (ev):

    -0.4438   2.7149   4.0194   8.7695

          k = 0.0000-1.0040 0.0000 (   314 PWs)   bands (ev):

     0.8904   0.8906   7.1122   7.1124

          k = 0.0000 0.0000 0.3307 (   307 PWs)   bands (ev):

    -7.0471  11.0712  11.0721  11.3345

          k =-0.3347 0.3347 0.0000 (   317 PWs)   bands (ev):

    -5.9848   7.8962   8.6193  12.3473

          k = 0.5020-0.5020 0.8267 (   316 PWs)   bands (ev):

    -3.2413   2.9038   7.7660  10.7319

          k = 0.3347-0.3347 0.6614 (   317 PWs)   bands (ev):

    -2.1897   1.4570   8.4561   9.6888

          k = 0.1673-0.1673 0.4960 (   320 PWs)   bands (ev):

    -5.2692   6.3825   9.7991  10.0817

          k = 0.6693-0.3347 0.9921 (   318 PWs)   bands (ev):

    -2.9670   4.9059   6.0449   8.7964

          k = 0.5020-0.1673 0.8267 (   317 PWs)   bands (ev):

    -0.2735   1.7328   5.6652   7.5388

          k = 0.3347-0.0000 0.6614 (   318 PWs)   bands (ev):

    -3.0594   4.9671   6.2266   8.6246

          k =-1.0040-0.3347-0.6614 (   320 PWs)   bands (ev):

    -2.9891   4.9813   6.1528   8.7185

          k =-0.3347-1.0040 0.0000 (   312 PWs)   bands (ev):

     1.4694   1.4698   5.5228   5.5231

          k =-0.8367-0.1673-0.4960 (   316 PWs)   bands (ev):

    -0.2460   1.7569   5.7497   7.5220

          k = 0.0000-1.0040 0.3307 (   318 PWs)   bands (ev):

     1.4725   1.4727   5.5747   5.5749

          k = 0.0000 0.0000 0.6614 (   323 PWs)   bands (ev):

    -4.0349   6.3598   8.2922   8.2928

          k = 0.3347-0.3347 0.9921 (   321 PWs)   bands (ev):

    -0.3943   2.5598   3.8863   8.9589

          k = 0.1673-0.1673 0.8267 (   320 PWs)   bands (ev):

    -1.4077   3.3645   5.7741   7.9713

          k =-0.6693-1.0040 0.0000 (   312 PWs)   bands (ev):

     1.3321   1.3326   5.6564   5.6570

          k = 0.0000 0.0000-0.9921 (   318 PWs)   bands (ev):

     0.6971   0.6975   7.2936   7.2942

          k = 0.1673 0.1673 0.1653 (   320 PWs)   bands (ev):

    -7.2900   9.8452  12.5241  12.6707

          k =-0.1673-0.1673 0.1653 (   320 PWs)   bands (ev):

    -7.2900   9.8457  12.5233  12.6709

          k = 0.3347 0.3347 0.3307 (   312 PWs)   bands (ev):

    -4.9897   4.1443  11.1719  11.3699

          k =-0.3347-0.3347 0.3307 (   312 PWs)   bands (ev):

    -4.9897   4.1445  11.1713  11.3701

          k =-0.5020-0.5020-0.4960 (   328 PWs)   bands (ev):

    -2.0565  -0.0481  10.6697  10.8906

          k = 0.5020 0.5020-0.4960 (   328 PWs)   bands (ev):

    -2.0567  -0.0477  10.6691  10.8909

          k = 0.1673 0.5020 0.1653 (   317 PWs)   bands (ev):

    -5.2200   6.3290   9.6516  10.2673

          k =-0.1673-0.5020 0.1653 (   317 PWs)   bands (ev):

    -5.2200   6.3293   9.6513  10.2673

          k = 0.5020-0.1673 0.1653 (   317 PWs)   bands (ev):

    -5.2200   6.3287   9.6511  10.2684

          k =-0.6693-0.3347-0.6614 (   319 PWs)   bands (ev):

    -2.1299   1.4044   8.6594   9.5205

          k = 0.6693 0.3347-0.6614 (   319 PWs)   bands (ev):

    -2.1300   1.4047   8.6594   9.5202

          k =-0.3347 0.6693-0.6614 (   319 PWs)   bands (ev):

    -2.1299   1.4042   8.6601   9.5200

          k =-0.5020-0.1673-0.4960 (   317 PWs)   bands (ev):

    -3.2863   2.9851   7.9340  10.5517

          k = 0.5020 0.1673-0.4960 (   317 PWs)   bands (ev):

    -3.2863   2.9854   7.9340  10.5514

          k =-0.1673 0.5020-0.4960 (   317 PWs)   bands (ev):

    -3.2863   2.9850   7.9345  10.5512

          k = 0.3347 0.0000-0.3307 (   318 PWs)   bands (ev):

    -6.0097   7.9399   8.7579  12.1897

          k =-0.8367-0.1673-0.8267 (   319 PWs)   bands (ev):

    -1.2746   3.4680   5.7622   7.7921

          k = 0.8367 0.1673-0.8267 (   319 PWs)   bands (ev):

    -1.2747   3.4682   5.7622   7.7918

          k =-0.1673 0.8367-0.8267 (   319 PWs)   bands (ev):

    -1.2746   3.4676   5.7629   7.7917

          k = 0.6693 0.0000-0.6614 (   318 PWs)   bands (ev):

    -0.4439   2.7151   4.0195   8.7691

          k = 0.3347 0.3347-0.0000 (   317 PWs)   bands (ev):

    -5.9848   7.8971   8.6192  12.3460

          k =-0.5020-0.5020-0.8267 (   316 PWs)   bands (ev):

    -3.2413   2.9040   7.7665  10.7308

          k = 0.5020 0.5020-0.8267 (   316 PWs)   bands (ev):

    -3.2413   2.9042   7.7662  10.7310

          k =-0.3347-0.3347-0.6614 (   317 PWs)   bands (ev):

    -2.1897   1.4571   8.4568   9.6879

          k = 0.3347 0.3347-0.6614 (   317 PWs)   bands (ev):

    -2.1898   1.4574   8.4564   9.6880

          k =-0.1673-0.1673-0.4960 (   320 PWs)   bands (ev):

    -5.2692   6.3825   9.7983  10.0825

          k = 0.1673 0.1673-0.4960 (   320 PWs)   bands (ev):

    -5.2692   6.3829   9.7984  10.0819

          k =-0.6693-0.3347-0.9921 (   318 PWs)   bands (ev):

    -2.9670   4.9066   6.0449   8.7955

          k =-0.5020-0.1673-0.8267 (   317 PWs)   bands (ev):

    -0.2736   1.7331   5.6657   7.5381

          k = 0.5020 0.1673-0.8267 (   317 PWs)   bands (ev):

    -0.2738   1.7335   5.6654   7.5380

          k =-0.1673 0.5020-0.8267 (   317 PWs)   bands (ev):

    -0.2735   1.7328   5.6656   7.5384

          k = 0.3347 0.0000-0.6614 (   318 PWs)   bands (ev):

    -3.0595   4.9674   6.2266   8.6242

          k = 1.0040-0.3347 0.6614 (   320 PWs)   bands (ev):

    -2.9891   4.9816   6.1528   8.7180

          k = 0.8367-0.1673 0.4960 (   316 PWs)   bands (ev):

    -0.2459   1.7566   5.7505   7.5214

          k =-0.1673-0.8367 0.4960 (   316 PWs)   bands (ev):

    -0.2462   1.7573   5.7498   7.5216

          k =-0.3347-0.3347-0.9921 (   321 PWs)   bands (ev):

    -0.3944   2.5603   3.8865   8.9581

          k =-0.1673-0.1673-0.8267 (   320 PWs)   bands (ev):

    -1.4077   3.3643   5.7748   7.9706

          k = 0.1673 0.1673-0.8267 (   320 PWs)   bands (ev):

    -1.4077   3.3646   5.7744   7.9707

     highest occupied level (ev):    13.7127

!    total energy              =     -23.05603008 Ry
     estimated scf accuracy    <          4.5E-11 Ry

     The total energy is the sum of the following terms:
     one-electron contribution =       8.28828504 Ry
     hartree contribution      =       1.88798384 Ry
     xc contribution           =      -7.39535845 Ry
     ewald contribution        =     -25.83694051 Ry

     convergence has been achieved in   4 iterations

     Forces acting on atoms (cartesian axes, Ry/au):

     atom    1 type  1   force =    -0.00004114   -0.00004114    0.00008468
     atom    2 type  1   force =     0.00004114    0.00004114   -0.00008468

     Total force =     0.000145     Total SCF correction =     0.000007


     Computing stress (Cartesian axis) and pressure

          total   stress  (Ry/bohr**3)                   (kbar)     P=        4.39
   0.00029176  -0.00000032   0.00000017           42.92       -0.05        0.03
  -0.00000032   0.00029176   0.00000017           -0.05       42.92        0.03
   0.00000017   0.00000017  -0.00049402            0.03        0.03      -72.67

     Energy error            =      4.0E-05 Ry
     Gradient error          =      8.5E-05 Ry/Bohr

     bfgs converged in   3 scf cycles and   2 bfgs steps
     (criteria: energy <  1.0E-04 Ry, force <  1.0E-03 Ry/Bohr)

     End of BFGS Geometry Optimization

     Final energy             =     -23.0560300830 Ry

     File ./Diamond.bfgs deleted, as requested
Begin final coordinates

ATOMIC_POSITIONS (alat)
C             0.0005036881        0.0005036881       -0.0010077453
C             0.2494963119        0.2494963119        0.2510077453
End final coordinates



     Writing all to output data dir ./Diamond.save/
 
     init_run     :      0.77s CPU      0.82s WALL (       1 calls)
     electrons    :     16.13s CPU     19.53s WALL (       3 calls)
     update_pot   :      0.02s CPU      0.03s WALL (       2 calls)
     forces       :      0.12s CPU      0.14s WALL (       3 calls)
     stress       :      0.69s CPU      0.70s WALL (       3 calls)

     Called by init_run:
     wfcinit      :      0.46s CPU      0.49s WALL (       1 calls)
     potinit      :      0.00s CPU      0.01s WALL (       1 calls)
     hinit0       :      0.29s CPU      0.31s WALL (       1 calls)

     Called by electrons:
     c_bands      :     14.32s CPU     17.57s WALL (      15 calls)
     sum_band     :      1.69s CPU      1.78s WALL (      15 calls)
     v_of_rho     :      0.04s CPU      0.04s WALL (      17 calls)
     newd         :      0.06s CPU      0.07s WALL (      17 calls)
     mix_rho      :      0.01s CPU      0.01s WALL (      15 calls)

     Called by c_bands:
     init_us_2    :      0.50s CPU      0.60s WALL (    2516 calls)
     init_us_2:cp :      0.46s CPU      0.56s WALL (    2516 calls)
     ccgdiagg     :     11.38s CPU     12.74s WALL (    1020 calls)
     wfcrot       :      2.74s CPU      2.95s WALL (     816 calls)

     Called by *cgdiagg:
     h_psi        :     11.59s CPU     12.81s WALL (   14123 calls)
     s_psi        :      0.53s CPU      0.62s WALL (   27430 calls)

     Called by h_psi:
     h_psi:calbec :      0.48s CPU      0.53s WALL (   14123 calls)
     vloc_psi     :     10.27s CPU     11.32s WALL (   14123 calls)
     add_vuspsi   :      0.30s CPU      0.35s WALL (   14123 calls)
     hs_1psi      :     10.02s CPU     11.16s WALL (   13307 calls)
     s_1psi       :      0.89s CPU      1.00s WALL (   13307 calls)

     General routines
     calbec       :      0.61s CPU      0.70s WALL (   29470 calls)
     fft          :      0.04s CPU      0.05s WALL (      95 calls)
     ffts         :      0.00s CPU      0.00s WALL (      15 calls)
     fftw         :     10.48s CPU     11.51s WALL (   37766 calls)
 
     Parallel routines
 
     PWSCF        :     18.18s CPU     22.34s WALL

 
   This run was terminated on:  23:24:50  14Mar2022            

=------------------------------------------------------------------------------=
   JOB DONE.
=------------------------------------------------------------------------------=
