
     Program PWSCF v.7.0 starts on 14Mar2022 at 20:53: 6 

     This program is part of the open-source Quantum ESPRESSO suite
     for quantum simulation of materials; please cite
         "P. Giannozzi et al., J. Phys.:Condens. Matter 21 395502 (2009);
         "P. Giannozzi et al., J. Phys.:Condens. Matter 29 465901 (2017);
         "P. Giannozzi et al., J. Chem. Phys. 152 154105 (2020);
          URL http://www.quantum-espresso.org", 
     in publications or presentations arising from this work. More details at
     http://www.quantum-espresso.org/quote

     Parallel version (MPI), running on     1 processors

     MPI processes distributed on     1 nodes
     90343 MiB available memory on the printing compute node when the environment starts
 
     Waiting for input...
     Reading input from standard input
Warning: card &CELL ignored
Warning: card  CELL_DYNAMICS = 'BFGS', ignored
Warning: card  PRESS=0.1D0, ignored
Warning: card / ignored
     Message from routine read_cards :
     DEPRECATED: no units specified in ATOMIC_POSITIONS card
     Message from routine read_cards :
     ATOMIC_POSITIONS: units set to alat

     Current dimensions of program PWSCF are:
     Max number of different atomic species (ntypx) = 10
     Max number of k-points (npk) =  40000
     Max angular momentum in pseudopotentials (lmaxx) =  4

     Subspace diagonalization in iterative solution of the eigenvalue problem:
     a serial algorithm will be used

 
     G-vector sticks info
     --------------------
     sticks:   dense  smooth     PW     G-vecs:    dense   smooth      PW
     Sum         253     253     85                 2637     2637     537
 
     Using Slab Decomposition
 


     bravais-lattice index     =            0
     lattice parameter (alat)  =       6.6800  a.u.
     unit-cell volume          =      74.5191 (a.u.)^3
     number of atoms/cell      =            2
     number of atomic types    =            1
     number of electrons       =         8.00
     number of Kohn-Sham states=            4
     kinetic-energy cutoff     =      40.0000  Ry
     charge density cutoff     =     160.0000  Ry
     scf convergence threshold =      1.0E-08
     mixing beta               =       0.7000
     number of iterations used =            8  plain     mixing
     energy convergence thresh.=      1.0E-04
     force convergence thresh. =      1.0E-03
     Exchange-correlation= SLA  PZ   NOGX NOGC
                           (   1   1   0   0   0   0   0)
     nstep                     =           50


     celldm(1)=   6.680000  celldm(2)=   0.000000  celldm(3)=   0.000000
     celldm(4)=   0.000000  celldm(5)=   0.000000  celldm(6)=   0.000000

     crystal axes: (cart. coord. in units of alat)
               a(1) = (  -0.500000  -0.001000   0.499000 )  
               a(2) = (   0.001000   0.500000   0.499000 )  
               a(3) = (  -0.500000   0.500000   0.000000 )  

     reciprocal axes: (cart. coord. in units 2 pi/alat)
               b(1) = ( -0.998004 -0.998004  1.002004 )  
               b(2) = (  0.998004  0.998004  1.002004 )  
               b(3) = ( -1.000000  1.000000 -1.000000 )  


     PseudoPot. # 1 for C  read from file:
     ./C_LDA.UPF
     MD5 check sum: 407c1fe918d93b14b177d5600f28733c
     Pseudo is Ultrasoft + core correction, Zval =  4.0
     Generated by new atomic code, or converted to UPF format
     Using radial grid of  721 points,  4 beta functions with: 
                l(1) =   0
                l(2) =   0
                l(3) =   1
                l(4) =   1
     Q(r) pseudized with  8 coefficients,  rinner =    1.100   1.100   1.100


     atomic species   valence    mass     pseudopotential
        C              4.00    12.01100     C ( 1.00)

     No symmetry found



   Cartesian axes

     site n.     atom                  positions (alat units)
         1           C   tau(   1) = (   0.0000000   0.0000000   0.0000000  )
         2           C   tau(   2) = (   0.2500000   0.2500000   0.2500000  )

     number of k points=   112

     Number of k-points >= 100: set verbosity='high' to print them.

     Dense  grid:     2637 G-vectors     FFT dimensions: (  20,  20,  20)

     Estimated max dynamical RAM per process >       6.22 MB

     Initial potential from superposition of free atoms

     starting charge       7.9999, renormalised to       8.0000
     Starting wfcs are    8 randomized atomic wfcs

     total cpu time spent up to now is        1.5 secs

     Self-consistent Calculation

     iteration #  1     ecut=    40.00 Ry     beta= 0.70
     CG style diagonalization
     ethr =  1.00E-02,  avg # of iterations =  3.0

     total cpu time spent up to now is        3.3 secs

     total energy              =     -23.03938515 Ry
     estimated scf accuracy    <       0.14052268 Ry

     iteration #  2     ecut=    40.00 Ry     beta= 0.70
     CG style diagonalization
     ethr =  1.76E-03,  avg # of iterations =  3.6

     total cpu time spent up to now is        5.3 secs

     total energy              =     -23.05572564 Ry
     estimated scf accuracy    <       0.00146836 Ry

     iteration #  3     ecut=    40.00 Ry     beta= 0.70
     CG style diagonalization
     ethr =  1.84E-05,  avg # of iterations =  4.0

     total cpu time spent up to now is        7.4 secs

     total energy              =     -23.05621485 Ry
     estimated scf accuracy    <       0.00004738 Ry

     iteration #  4     ecut=    40.00 Ry     beta= 0.70
     CG style diagonalization
     ethr =  5.92E-07,  avg # of iterations =  4.0

     total cpu time spent up to now is        9.5 secs

     total energy              =     -23.05623162 Ry
     estimated scf accuracy    <       0.00000205 Ry

     iteration #  5     ecut=    40.00 Ry     beta= 0.70
     CG style diagonalization
     ethr =  2.56E-08,  avg # of iterations =  4.0

     total cpu time spent up to now is       11.7 secs

     total energy              =     -23.05623235 Ry
     estimated scf accuracy    <       0.00000001 Ry

     iteration #  6     ecut=    40.00 Ry     beta= 0.70
     CG style diagonalization
     ethr =  1.78E-10,  avg # of iterations =  4.7

     total cpu time spent up to now is       14.1 secs

     End of self-consistent calculation

     Number of k-points >= 100: set verbosity='high' to print the bands.

     highest occupied level (ev):    13.6467

!    total energy              =     -23.05623237 Ry
     estimated scf accuracy    <          9.9E-10 Ry

     The total energy is the sum of the following terms:
     one-electron contribution =       8.24600932 Ry
     hartree contribution      =       1.89197612 Ry
     xc contribution           =      -7.38926346 Ry
     ewald contribution        =     -25.80495435 Ry

     convergence has been achieved in   6 iterations

     Forces acting on atoms (cartesian axes, Ry/au):

     atom    1 type  1   force =    -0.00414079   -0.00111730    0.00297830
     atom    2 type  1   force =     0.00414079    0.00111730   -0.00297830

     Total force =     0.007384     Total SCF correction =     0.000001


     Computing stress (Cartesian axis) and pressure

          total   stress  (Ry/bohr**3)                   (kbar)     P=      -12.44
  -0.00014906  -0.00008748  -0.00003789          -21.93      -12.87       -5.57
  -0.00008748  -0.00014900   0.00005083          -12.87      -21.92        7.48
  -0.00003789   0.00005083   0.00004430           -5.57        7.48        6.52


     BFGS Geometry Optimization
     Energy error            =      0.0E+00 Ry
     Gradient error          =      4.1E-03 Ry/Bohr

     number of scf cycles    =   1
     number of bfgs steps    =   0

     energy             new  =     -23.0562323657 Ry

     new trust radius        =       0.0052215699 bohr
     new conv_thr            =       0.0000000100 Ry


ATOMIC_POSITIONS (alat)
C            -0.0006198793       -0.0001672602        0.0004458532
C             0.2506198793        0.2501672602        0.2495541468



     Writing config-only to output data dir ./Diamond.save/
     NEW-OLD atomic charge density approx. for the potential

     total cpu time spent up to now is       14.7 secs

     Self-consistent Calculation

     iteration #  1     ecut=    40.00 Ry     beta= 0.70
     CG style diagonalization
     c_bands:  1 eigenvalues not converged
     c_bands:  1 eigenvalues not converged
     c_bands:  1 eigenvalues not converged
     c_bands:  1 eigenvalues not converged
     c_bands:  1 eigenvalues not converged
     c_bands:  1 eigenvalues not converged
     c_bands:  1 eigenvalues not converged
     c_bands:  1 eigenvalues not converged
     c_bands:  1 eigenvalues not converged
     c_bands:  1 eigenvalues not converged
     c_bands:  1 eigenvalues not converged
     ethr =  1.00E-06,  avg # of iterations =  5.8

     Threshold (ethr) on eigenvalues was too large:
     Diagonalizing with lowered threshold

     CG style diagonalization
     c_bands:  2 eigenvalues not converged
     c_bands:  1 eigenvalues not converged
     c_bands:  1 eigenvalues not converged
     c_bands:  1 eigenvalues not converged
     c_bands:  1 eigenvalues not converged
     c_bands:  1 eigenvalues not converged
     c_bands:  1 eigenvalues not converged
     c_bands:  1 eigenvalues not converged
     c_bands:  1 eigenvalues not converged
     ethr =  6.59E-08,  avg # of iterations =  3.6

     total cpu time spent up to now is       19.7 secs

     total energy              =     -23.05624241 Ry
     estimated scf accuracy    <       0.00000539 Ry

     iteration #  2     ecut=    40.00 Ry     beta= 0.70
     CG style diagonalization
     ethr =  6.74E-08,  avg # of iterations =  3.5

     total cpu time spent up to now is       21.7 secs

     total energy              =     -23.05624359 Ry
     estimated scf accuracy    <       0.00000010 Ry

     iteration #  3     ecut=    40.00 Ry     beta= 0.70
     CG style diagonalization
     ethr =  1.21E-09,  avg # of iterations =  3.8

     total cpu time spent up to now is       23.7 secs

     End of self-consistent calculation

     Number of k-points >= 100: set verbosity='high' to print the bands.

     highest occupied level (ev):    13.6266

!    total energy              =     -23.05624362 Ry
     estimated scf accuracy    <          4.6E-09 Ry

     The total energy is the sum of the following terms:
     one-electron contribution =       8.24618761 Ry
     hartree contribution      =       1.89192832 Ry
     xc contribution           =      -7.38925674 Ry
     ewald contribution        =     -25.80510281 Ry

     convergence has been achieved in   3 iterations

     Forces acting on atoms (cartesian axes, Ry/au):

     atom    1 type  1   force =     0.00244726    0.00060892   -0.00177838
     atom    2 type  1   force =    -0.00244726   -0.00060892    0.00177838

     Total force =     0.004364     Total SCF correction =     0.000027


     Computing stress (Cartesian axis) and pressure

          total   stress  (Ry/bohr**3)                   (kbar)     P=      -12.44
  -0.00014900  -0.00007483  -0.00004151          -21.92      -11.01       -6.11
  -0.00007483  -0.00014891   0.00003368          -11.01      -21.91        4.95
  -0.00004151   0.00003368   0.00004427           -6.11        4.95        6.51

     Energy error            =      1.1E-05 Ry
     Gradient error          =      2.4E-03 Ry/Bohr

     number of scf cycles    =   2
     number of bfgs steps    =   1

     energy             old  =     -23.0562323657 Ry
     energy             new  =     -23.0562436151 Ry

     CASE: energy            _new < energy            _old

     new trust radius        =       0.0019394779 bohr
     new conv_thr            =            1.0E-10 Ry


ATOMIC_POSITIONS (alat)
C            -0.0003896224       -0.0001099692        0.0002785289
C             0.2503896224        0.2501099692        0.2497214711



     Writing config-only to output data dir ./Diamond.save/
     NEW-OLD atomic charge density approx. for the potential

     total cpu time spent up to now is       24.3 secs

     Self-consistent Calculation

     iteration #  1     ecut=    40.00 Ry     beta= 0.70
     CG style diagonalization
     c_bands:  1 eigenvalues not converged
     c_bands:  1 eigenvalues not converged
     c_bands:  1 eigenvalues not converged
     ethr =  1.00E-06,  avg # of iterations =  3.8

     Threshold (ethr) on eigenvalues was too large:
     Diagonalizing with lowered threshold

     CG style diagonalization
     c_bands:  1 eigenvalues not converged
     c_bands:  1 eigenvalues not converged
     c_bands:  1 eigenvalues not converged
     c_bands:  1 eigenvalues not converged
     c_bands:  1 eigenvalues not converged
     c_bands:  1 eigenvalues not converged
     c_bands:  1 eigenvalues not converged
     ethr =  1.45E-08,  avg # of iterations =  5.5

     total cpu time spent up to now is       29.2 secs

     total energy              =     -23.05624936 Ry
     estimated scf accuracy    <       0.00000072 Ry

     iteration #  2     ecut=    40.00 Ry     beta= 0.70
     CG style diagonalization
     ethr =  9.04E-09,  avg # of iterations =  3.5

     total cpu time spent up to now is       31.0 secs

     total energy              =     -23.05624956 Ry
     estimated scf accuracy    <       0.00000001 Ry

     iteration #  3     ecut=    40.00 Ry     beta= 0.70
     CG style diagonalization
     ethr =  1.80E-10,  avg # of iterations =  3.9

     total cpu time spent up to now is       33.1 secs

     total energy              =     -23.05624957 Ry
     estimated scf accuracy    <          7.0E-10 Ry

     iteration #  4     ecut=    40.00 Ry     beta= 0.70
     CG style diagonalization
     ethr =  8.74E-12,  avg # of iterations =  3.9

     total cpu time spent up to now is       35.1 secs

     End of self-consistent calculation

     Number of k-points >= 100: set verbosity='high' to print the bands.

     highest occupied level (ev):    13.6135

!    total energy              =     -23.05624957 Ry
     estimated scf accuracy    <          4.0E-11 Ry

     The total energy is the sum of the following terms:
     one-electron contribution =       8.24613262 Ry
     hartree contribution      =       1.89194823 Ry
     xc contribution           =      -7.38926064 Ry
     ewald contribution        =     -25.80506977 Ry

     convergence has been achieved in   4 iterations

     Forces acting on atoms (cartesian axes, Ry/au):

     atom    1 type  1   force =    -0.00000466    0.00000231    0.00001300
     atom    2 type  1   force =     0.00000466   -0.00000231   -0.00001300

     Total force =     0.000020     Total SCF correction =     0.000004
     SCF correction compared to forces is large: reduce conv_thr to get better values


     Computing stress (Cartesian axis) and pressure

          total   stress  (Ry/bohr**3)                   (kbar)     P=      -12.44
  -0.00014898  -0.00007961  -0.00004011          -21.92      -11.71       -5.90
  -0.00007961  -0.00014898   0.00004005          -11.71      -21.92        5.89
  -0.00004011   0.00004005   0.00004429           -5.90        5.89        6.52

     Energy error            =      6.0E-06 Ry
     Gradient error          =      1.3E-05 Ry/Bohr

     bfgs converged in   3 scf cycles and   2 bfgs steps
     (criteria: energy <  1.0E-04 Ry, force <  1.0E-03 Ry/Bohr)

     End of BFGS Geometry Optimization

     Final energy             =     -23.0562495658 Ry

     File ./Diamond.bfgs deleted, as requested
Begin final coordinates

ATOMIC_POSITIONS (alat)
C            -0.0003896224       -0.0001099692        0.0002785289
C             0.2503896224        0.2501099692        0.2497214711
End final coordinates



     Writing all to output data dir ./Diamond.save/
 
     init_run     :      1.05s CPU      1.10s WALL (       1 calls)
     electrons    :     26.69s CPU     32.46s WALL (       3 calls)
     update_pot   :      0.05s CPU      0.05s WALL (       2 calls)
     forces       :      0.22s CPU      0.23s WALL (       3 calls)
     stress       :      1.11s CPU      1.13s WALL (       3 calls)

     Called by init_run:
     wfcinit      :      0.73s CPU      0.76s WALL (       1 calls)
     potinit      :      0.01s CPU      0.01s WALL (       1 calls)
     hinit0       :      0.29s CPU      0.30s WALL (       1 calls)

     Called by electrons:
     c_bands      :     23.87s CPU     29.43s WALL (      15 calls)
     sum_band     :      2.72s CPU      2.86s WALL (      15 calls)
     v_of_rho     :      0.03s CPU      0.04s WALL (      16 calls)
     newd         :      0.06s CPU      0.07s WALL (      16 calls)
     mix_rho      :      0.01s CPU      0.01s WALL (      15 calls)

     Called by c_bands:
     init_us_2    :      0.79s CPU      0.98s WALL (    4144 calls)
     init_us_2:cp :      0.73s CPU      0.92s WALL (    4144 calls)
     ccgdiagg     :     19.27s CPU     21.60s WALL (    1680 calls)
     wfcrot       :      4.12s CPU      4.44s WALL (    1232 calls)

     Called by *cgdiagg:
     h_psi        :     19.19s CPU     21.25s WALL (   23837 calls)
     s_psi        :      0.87s CPU      1.03s WALL (   46442 calls)

     Called by h_psi:
     h_psi:calbec :      0.81s CPU      0.90s WALL (   23837 calls)
     vloc_psi     :     16.96s CPU     18.74s WALL (   23837 calls)
     add_vuspsi   :      0.49s CPU      0.58s WALL (   23837 calls)
     hs_1psi      :     16.98s CPU     18.95s WALL (   22605 calls)
     s_1psi       :      1.50s CPU      1.70s WALL (   22605 calls)

     General routines
     calbec       :      1.00s CPU      1.17s WALL (   49802 calls)
     fft          :      0.04s CPU      0.05s WALL (      92 calls)
     ffts         :      0.00s CPU      0.00s WALL (      15 calls)
     fftw         :     17.30s CPU     19.04s WALL (   62682 calls)
 
     Parallel routines
 
     PWSCF        :     29.63s CPU     36.37s WALL

 
   This run was terminated on:  20:53:43  14Mar2022            

=------------------------------------------------------------------------------=
   JOB DONE.
=------------------------------------------------------------------------------=
