
     Program PWSCF v.7.0 starts on 14Mar2022 at 19: 4:57 

     This program is part of the open-source Quantum ESPRESSO suite
     for quantum simulation of materials; please cite
         "P. Giannozzi et al., J. Phys.:Condens. Matter 21 395502 (2009);
         "P. Giannozzi et al., J. Phys.:Condens. Matter 29 465901 (2017);
         "P. Giannozzi et al., J. Chem. Phys. 152 154105 (2020);
          URL http://www.quantum-espresso.org", 
     in publications or presentations arising from this work. More details at
     http://www.quantum-espresso.org/quote

     Parallel version (MPI), running on     1 processors

     MPI processes distributed on     1 nodes
     90134 MiB available memory on the printing compute node when the environment starts
 
     Waiting for input...
     Reading input from standard input
Warning: card &CELL ignored
Warning: card  CELL_DYNAMICS = 'BFGS', ignored
Warning: card  PRESS=0.1D0, ignored
Warning: card / ignored
     Message from routine read_cards :
     DEPRECATED: no units specified in ATOMIC_POSITIONS card
     Message from routine read_cards :
     ATOMIC_POSITIONS: units set to alat

     Current dimensions of program PWSCF are:
     Max number of different atomic species (ntypx) = 10
     Max number of k-points (npk) =  40000
     Max angular momentum in pseudopotentials (lmaxx) =  4
     Message from routine setup:
     using ibrav=0 with symmetry is DISCOURAGED, use correct ibrav instead

     Subspace diagonalization in iterative solution of the eigenvalue problem:
     a serial algorithm will be used

 
     G-vector sticks info
     --------------------
     sticks:   dense  smooth     PW     G-vecs:    dense   smooth      PW
     Sum         241     241     85                 2445     2445     531
 
     Using Slab Decomposition
 


     bravais-lattice index     =            0
     lattice parameter (alat)  =       6.6780  a.u.
     unit-cell volume          =      73.1204 (a.u.)^3
     number of atoms/cell      =            2
     number of atomic types    =            1
     number of electrons       =         8.00
     number of Kohn-Sham states=            4
     kinetic-energy cutoff     =      40.0000  Ry
     charge density cutoff     =     160.0000  Ry
     scf convergence threshold =      1.0E-08
     mixing beta               =       0.7000
     number of iterations used =            8  plain     mixing
     energy convergence thresh.=      1.0E-04
     force convergence thresh. =      1.0E-03
     Exchange-correlation= SLA  PZ   NOGX NOGC
                           (   1   1   0   0   0   0   0)
     nstep                     =           50


     celldm(1)=   6.678000  celldm(2)=   0.000000  celldm(3)=   0.000000
     celldm(4)=   0.000000  celldm(5)=   0.000000  celldm(6)=   0.000000

     crystal axes: (cart. coord. in units of alat)
               a(1) = (  -0.497000   0.000000   0.497000 )  
               a(2) = (   0.000000   0.497000   0.497000 )  
               a(3) = (  -0.497000   0.497000   0.000000 )  

     reciprocal axes: (cart. coord. in units 2 pi/alat)
               b(1) = ( -1.006036 -1.006036  1.006036 )  
               b(2) = (  1.006036  1.006036  1.006036 )  
               b(3) = ( -1.006036  1.006036 -1.006036 )  


     PseudoPot. # 1 for C  read from file:
     ./C_LDA.UPF
     MD5 check sum: 407c1fe918d93b14b177d5600f28733c
     Pseudo is Ultrasoft + core correction, Zval =  4.0
     Generated by new atomic code, or converted to UPF format
     Using radial grid of  721 points,  4 beta functions with: 
                l(1) =   0
                l(2) =   0
                l(3) =   1
                l(4) =   1
     Q(r) pseudized with  8 coefficients,  rinner =    1.100   1.100   1.100


     atomic species   valence    mass     pseudopotential
        C              4.00    12.01100     C ( 1.00)

      6 Sym. Ops. (no inversion) found



   Cartesian axes

     site n.     atom                  positions (alat units)
         1           C   tau(   1) = (   0.0000000   0.0000000   0.0000000  )
         2           C   tau(   2) = (   0.2500000   0.2500000   0.2500000  )

     number of k points=    32
                       cart. coord. in units 2pi/alat
        k(    1) = (   0.0000000   0.0000000   0.0000000), wk =   0.0092593
        k(    2) = (  -0.1676727   0.1676727  -0.1676727), wk =   0.0555556
        k(    3) = (  -0.3353454   0.3353454  -0.3353454), wk =   0.0555556
        k(    4) = (   0.5030181  -0.5030181   0.5030181), wk =   0.0277778
        k(    5) = (   0.0000000   0.3353454   0.0000000), wk =   0.0555556
        k(    6) = (  -0.1676727   0.5030181  -0.1676727), wk =   0.0555556
        k(    7) = (   0.6706908  -0.3353454   0.6706908), wk =   0.0555556
        k(    8) = (   0.5030181  -0.1676727   0.5030181), wk =   0.0555556
        k(    9) = (   0.3353454  -0.0000000   0.3353454), wk =   0.0555556
        k(   10) = (   0.0000000   0.6706908   0.0000000), wk =   0.0555556
        k(   11) = (   0.8383635  -0.1676727   0.8383635), wk =   0.0555556
        k(   12) = (   0.6706908  -0.0000000   0.6706908), wk =   0.0555556
        k(   13) = (   0.0000000  -1.0060362   0.0000000), wk =   0.0277778
        k(   14) = (   0.6706908  -0.3353454   1.0060362), wk =   0.1111111
        k(   15) = (   0.5030181  -0.1676727   0.8383635), wk =   0.1111111
        k(   16) = (  -0.3353454  -1.0060362   0.0000000), wk =   0.1111111
        k(   17) = (  -0.1676727  -0.1676727  -0.1676727), wk =   0.0185185
        k(   18) = (  -0.3353454  -0.3353454  -0.3353454), wk =   0.0185185
        k(   19) = (   0.5030181   0.5030181   0.5030181), wk =   0.0092593
        k(   20) = (   0.5030181   0.1676727  -0.1676727), wk =   0.1111111
        k(   21) = (  -0.5030181  -0.1676727  -0.1676727), wk =   0.0555556
        k(   22) = (  -0.3353454  -0.6706908   0.6706908), wk =   0.1111111
        k(   23) = (   0.3353454   0.6706908   0.6706908), wk =   0.0555556
        k(   24) = (  -0.1676727  -0.5030181   0.5030181), wk =   0.1111111
        k(   25) = (   0.1676727   0.5030181   0.5030181), wk =   0.0555556
        k(   26) = (  -0.0000000  -0.3353454   0.3353454), wk =   0.0555556
        k(   27) = (  -0.1676727  -0.8383635   0.8383635), wk =   0.1111111
        k(   28) = (   0.1676727   0.8383635   0.8383635), wk =   0.0555556
        k(   29) = (  -0.0000000  -0.6706908   0.6706908), wk =   0.0555556
        k(   30) = (  -0.3353454  -0.6706908   1.0060362), wk =   0.1111111
        k(   31) = (   0.1676727   0.5030181   0.8383635), wk =   0.0555556
        k(   32) = (  -0.8383635  -0.1676727   0.5030181), wk =   0.0555556

     Dense  grid:     2445 G-vectors     FFT dimensions: (  20,  20,  20)

     Estimated max dynamical RAM per process >       4.43 MB

     Initial potential from superposition of free atoms

     starting charge       7.9999, renormalised to       8.0000
     Starting wfcs are    8 randomized atomic wfcs

     total cpu time spent up to now is        1.5 secs

     Self-consistent Calculation

     iteration #  1     ecut=    40.00 Ry     beta= 0.70
     CG style diagonalization
     ethr =  1.00E-02,  avg # of iterations =  3.0

     total cpu time spent up to now is        2.1 secs

     total energy              =     -23.03822405 Ry
     estimated scf accuracy    <       0.14654154 Ry

     iteration #  2     ecut=    40.00 Ry     beta= 0.70
     CG style diagonalization
     ethr =  1.83E-03,  avg # of iterations =  3.5

     total cpu time spent up to now is        2.6 secs

     total energy              =     -23.05521153 Ry
     estimated scf accuracy    <       0.00148778 Ry

     iteration #  3     ecut=    40.00 Ry     beta= 0.70
     CG style diagonalization
     ethr =  1.86E-05,  avg # of iterations =  4.0

     total cpu time spent up to now is        3.2 secs

     total energy              =     -23.05573905 Ry
     estimated scf accuracy    <       0.00004475 Ry

     iteration #  4     ecut=    40.00 Ry     beta= 0.70
     CG style diagonalization
     ethr =  5.59E-07,  avg # of iterations =  4.1

     total cpu time spent up to now is        3.8 secs

     total energy              =     -23.05575682 Ry
     estimated scf accuracy    <       0.00000211 Ry

     iteration #  5     ecut=    40.00 Ry     beta= 0.70
     CG style diagonalization
     ethr =  2.64E-08,  avg # of iterations =  3.9

     total cpu time spent up to now is        4.4 secs

     total energy              =     -23.05575752 Ry
     estimated scf accuracy    <       0.00000002 Ry

     iteration #  6     ecut=    40.00 Ry     beta= 0.70
     CG style diagonalization
     ethr =  1.92E-10,  avg # of iterations =  4.7

     total cpu time spent up to now is        5.1 secs

     End of self-consistent calculation

          k = 0.0000 0.0000 0.0000 (   331 PWs)   bands (ev):

    -7.9981  13.8482  13.8482  14.1016

          k =-0.1677 0.1677-0.1677 (   311 PWs)   bands (ev):

    -7.2087  10.0567  12.7845  12.9764

          k =-0.3353 0.3353-0.3353 (   308 PWs)   bands (ev):

    -4.8834   4.3071  11.4390  11.6172

          k = 0.5030-0.5030 0.5030 (   302 PWs)   bands (ev):

    -1.8847   0.0401  10.9403  11.1182

          k = 0.0000 0.3353 0.0000 (   307 PWs)   bands (ev):

    -6.9463  11.1914  11.2635  11.7694

          k =-0.1677 0.5030-0.1677 (   313 PWs)   bands (ev):

    -5.1337   6.5211   9.8759  10.5460

          k = 0.6707-0.3353 0.6707 (   307 PWs)   bands (ev):

    -1.9999   1.5444   8.8926   9.7397

          k = 0.5030-0.1677 0.5030 (   314 PWs)   bands (ev):

    -3.1435   3.1119   8.1499  10.7865

          k = 0.3353-0.0000 0.3353 (   317 PWs)   bands (ev):

    -5.9062   8.1965   8.9201  12.4406

          k = 0.0000 0.6707 0.0000 (   315 PWs)   bands (ev):

    -3.8542   6.7597   8.3555   8.4177

          k = 0.8384-0.1677 0.8384 (   311 PWs)   bands (ev):

    -1.1690   3.6011   5.9998   8.0149

          k = 0.6707-0.0000 0.6707 (   309 PWs)   bands (ev):

    -0.2656   2.8729   4.1263   9.0087

          k = 0.0000-1.0060 0.0000 (   302 PWs)   bands (ev):

     0.9790   1.0138   7.3331   7.3872

          k = 0.6707-0.3353 1.0060 (   318 PWs)   bands (ev):

    -2.8763   5.1279   6.3193   8.9664

          k = 0.5030-0.1677 0.8384 (   312 PWs)   bands (ev):

    -0.0756   1.8594   5.9248   7.6964

          k =-0.3353-1.0060 0.0000 (   308 PWs)   bands (ev):

     1.5874   1.6360   5.7142   5.7751

          k =-0.1677-0.1677-0.1677 (   311 PWs)   bands (ev):

    -7.2082  10.1614  12.8120  12.8120

          k =-0.3353-0.3353-0.3353 (   308 PWs)   bands (ev):

    -4.8831   4.3640  11.4921  11.4921

          k = 0.5030 0.5030 0.5030 (   302 PWs)   bands (ev):

    -1.9183   0.1199  11.0019  11.0019

          k = 0.5030 0.1677-0.1677 (   313 PWs)   bands (ev):

    -5.1334   6.5378   9.9536  10.4357

          k =-0.5030-0.1677-0.1677 (   313 PWs)   bands (ev):

    -5.1330   6.6073   9.8982  10.4088

          k =-0.3353-0.6707 0.6707 (   307 PWs)   bands (ev):

    -2.0005   1.5493   8.7925   9.8395

          k = 0.3353 0.6707 0.6707 (   307 PWs)   bands (ev):

    -2.0135   1.6119   8.7975   9.7723

          k =-0.1677-0.5030 0.5030 (   314 PWs)   bands (ev):

    -3.1434   3.1064   8.0707  10.8995

          k = 0.1677 0.5030 0.5030 (   314 PWs)   bands (ev):

    -3.1462   3.1663   8.0724  10.8154

          k =-0.0000-0.3353 0.3353 (   317 PWs)   bands (ev):

    -5.9069   8.1078   8.9252  12.5718

          k =-0.1677-0.8384 0.8384 (   311 PWs)   bands (ev):

    -1.1701   3.6378   5.9032   8.0785

          k = 0.1677 0.8384 0.8384 (   311 PWs)   bands (ev):

    -1.1749   3.6789   5.9149   8.0219

          k =-0.0000-0.6707 0.6707 (   309 PWs)   bands (ev):

    -0.2502   2.8235   4.1061   9.0800

          k =-0.3353-0.6707 1.0060 (   318 PWs)   bands (ev):

    -2.8773   5.1985   6.3187   8.8792

          k = 0.1677 0.5030 0.8384 (   312 PWs)   bands (ev):

    -0.1137   1.9577   5.8682   7.6863

          k =-0.8384-0.1677 0.5030 (   312 PWs)   bands (ev):

    -0.0740   1.8645   5.8368   7.7861

     highest occupied level (ev):    14.1016

!    total energy              =     -23.05575754 Ry
     estimated scf accuracy    <          8.4E-10 Ry

     The total energy is the sum of the following terms:
     one-electron contribution =       8.46062648 Ry
     hartree contribution      =       1.87354302 Ry
     xc contribution           =      -7.42163736 Ry
     ewald contribution        =     -25.96828968 Ry

     convergence has been achieved in   6 iterations

     Forces acting on atoms (cartesian axes, Ry/au):

     atom    1 type  1   force =     0.00813485    0.00813485    0.00813485
     atom    2 type  1   force =    -0.00813485   -0.00813485   -0.00813485

     Total force =     0.019926     Total SCF correction =     0.000001


     Computing stress (Cartesian axis) and pressure

          total   stress  (Ry/bohr**3)                   (kbar)     P=       77.90
   0.00052957  -0.00002536  -0.00002536           77.90       -3.73       -3.73
  -0.00002536   0.00052957  -0.00002536           -3.73       77.90       -3.73
  -0.00002536  -0.00002536   0.00052957           -3.73       -3.73       77.90


     BFGS Geometry Optimization
     Energy error            =      0.0E+00 Ry
     Gradient error          =      8.1E-03 Ry/Bohr

     number of scf cycles    =   1
     number of bfgs steps    =   0

     energy             new  =     -23.0557575433 Ry

     new trust radius        =       0.0140899731 bohr
     new conv_thr            =       0.0000000100 Ry


ATOMIC_POSITIONS (alat)
C             0.0012181566        0.0012181566        0.0012181566
C             0.2487818434        0.2487818434        0.2487818434



     Writing config-only to output data dir ./Diamond.save/
     NEW-OLD atomic charge density approx. for the potential

     total cpu time spent up to now is        5.6 secs

     Self-consistent Calculation

     iteration #  1     ecut=    40.00 Ry     beta= 0.70
     CG style diagonalization
     ethr =  1.00E-06,  avg # of iterations =  5.9

     total cpu time spent up to now is        6.5 secs

     total energy              =     -23.05582688 Ry
     estimated scf accuracy    <       0.00004253 Ry

     iteration #  2     ecut=    40.00 Ry     beta= 0.70
     CG style diagonalization
     ethr =  5.32E-07,  avg # of iterations =  3.4

     total cpu time spent up to now is        7.0 secs

     total energy              =     -23.05583145 Ry
     estimated scf accuracy    <       0.00000069 Ry

     iteration #  3     ecut=    40.00 Ry     beta= 0.70
     CG style diagonalization
     ethr =  8.64E-09,  avg # of iterations =  3.8

     total cpu time spent up to now is        7.6 secs

     total energy              =     -23.05583166 Ry
     estimated scf accuracy    <       0.00000003 Ry

     iteration #  4     ecut=    40.00 Ry     beta= 0.70
     CG style diagonalization
     ethr =  4.33E-10,  avg # of iterations =  3.8

     total cpu time spent up to now is        8.2 secs

     End of self-consistent calculation

          k = 0.0000 0.0000 0.0000 (   331 PWs)   bands (ev):

    -7.9980  13.8267  13.9851  13.9851

          k =-0.1677 0.1677-0.1677 (   311 PWs)   bands (ev):

    -7.2085  10.0999  12.7931  12.9121

          k =-0.3353 0.3353-0.3353 (   308 PWs)   bands (ev):

    -4.8832   4.3304  11.4577  11.5692

          k = 0.5030-0.5030 0.5030 (   302 PWs)   bands (ev):

    -1.8984   0.0728  10.9625  11.0738

          k = 0.0000 0.3353 0.0000 (   307 PWs)   bands (ev):

    -6.9462  11.2024  11.2630  11.7591

          k =-0.1677 0.5030-0.1677 (   313 PWs)   bands (ev):

    -5.1331   6.5701   9.9550  10.3936

          k = 0.6707-0.3353 0.6707 (   307 PWs)   bands (ev):

    -2.0058   1.5759   8.7758   9.8306

          k = 0.5030-0.1677 0.5030 (   314 PWs)   bands (ev):

    -3.1444   3.1296   8.0552  10.8886

          k = 0.3353-0.0000 0.3353 (   317 PWs)   bands (ev):

    -5.9067   8.1237   8.9263  12.5454

          k = 0.0000 0.6707 0.0000 (   315 PWs)   bands (ev):

    -3.8541   6.7612   8.3679   8.4038

          k = 0.8384-0.1677 0.8384 (   311 PWs)   bands (ev):

    -1.1721   3.6633   5.8869   8.0684

          k = 0.6707-0.0000 0.6707 (   309 PWs)   bands (ev):

    -0.2528   2.8324   4.1106   9.0658

          k = 0.0000-1.0060 0.0000 (   302 PWs)   bands (ev):

     0.9852   1.0081   7.3436   7.3763

          k = 0.6707-0.3353 1.0060 (   318 PWs)   bands (ev):

    -2.8769   5.1864   6.3176   8.8959

          k = 0.5030-0.1677 0.8384 (   312 PWs)   bands (ev):

    -0.0904   1.9017   5.8658   7.7289

          k =-0.3353-1.0060 0.0000 (   308 PWs)   bands (ev):

     1.5961   1.6279   5.7258   5.7630

          k =-0.1677-0.1677-0.1677 (   311 PWs)   bands (ev):

    -7.2088  10.0348  12.8944  12.8944

          k =-0.3353-0.3353-0.3353 (   308 PWs)   bands (ev):

    -4.8834   4.2948  11.5352  11.5352

          k = 0.5030 0.5030 0.5030 (   302 PWs)   bands (ev):

    -1.8768   0.0222  11.0345  11.0345

          k = 0.5030 0.1677-0.1677 (   313 PWs)   bands (ev):

    -5.1333   6.5595   9.8986  10.4706

          k =-0.5030-0.1677-0.1677 (   313 PWs)   bands (ev):

    -5.1335   6.5162   9.9409  10.4788

          k =-0.3353-0.6707 0.6707 (   307 PWs)   bands (ev):

    -2.0054   1.5728   8.8342   9.7728

          k = 0.3353 0.6707 0.6707 (   307 PWs)   bands (ev):

    -1.9972   1.5336   8.8350   9.8100

          k =-0.1677-0.5030 0.5030 (   314 PWs)   bands (ev):

    -3.1444   3.1331   8.1033  10.8199

          k = 0.1677 0.5030 0.5030 (   314 PWs)   bands (ev):

    -3.1427   3.0957   8.1035  10.8703

          k =-0.0000-0.3353 0.3353 (   317 PWs)   bands (ev):

    -5.9063   8.1823   8.9188  12.4656

          k =-0.1677-0.8384 0.8384 (   311 PWs)   bands (ev):

    -1.1714   3.6397   5.9468   8.0301

          k = 0.1677 0.8384 0.8384 (   311 PWs)   bands (ev):

    -1.1684   3.6139   5.9406   8.0640

          k =-0.0000-0.6707 0.6707 (   309 PWs)   bands (ev):

    -0.2625   2.8645   4.1215   9.0224

          k =-0.3353-0.6707 1.0060 (   318 PWs)   bands (ev):

    -2.8763   5.1408   6.3206   8.9488

          k = 0.1677 0.5030 0.8384 (   312 PWs)   bands (ev):

    -0.0658   1.8395   5.9020   7.7341

          k =-0.8384-0.1677 0.5030 (   312 PWs)   bands (ev):

    -0.0914   1.8985   5.9220   7.6720

     highest occupied level (ev):    13.9851

!    total energy              =     -23.05583167 Ry
     estimated scf accuracy    <          3.9E-10 Ry

     The total energy is the sum of the following terms:
     one-electron contribution =       8.46073964 Ry
     hartree contribution      =       1.87351147 Ry
     xc contribution           =      -7.42163102 Ry
     ewald contribution        =     -25.96845177 Ry

     convergence has been achieved in   4 iterations

     Forces acting on atoms (cartesian axes, Ry/au):

     atom    1 type  1   force =    -0.00522213   -0.00522213   -0.00522213
     atom    2 type  1   force =     0.00522213    0.00522213    0.00522213

     Total force =     0.012792     Total SCF correction =     0.000018


     Computing stress (Cartesian axis) and pressure

          total   stress  (Ry/bohr**3)                   (kbar)     P=       77.75
   0.00052853   0.00001719   0.00001719           77.75        2.53        2.53
   0.00001719   0.00052853   0.00001719            2.53       77.75        2.53
   0.00001719   0.00001719   0.00052853            2.53        2.53       77.75

     Energy error            =      7.4E-05 Ry
     Gradient error          =      5.2E-03 Ry/Bohr

     number of scf cycles    =   2
     number of bfgs steps    =   1

     energy             old  =     -23.0557575433 Ry
     energy             new  =     -23.0558316708 Ry

     CASE: energy            _new < energy            _old

     new trust radius        =       0.0055087029 bohr
     new conv_thr            =            1.0E-10 Ry


ATOMIC_POSITIONS (alat)
C             0.0007418986        0.0007418986        0.0007418986
C             0.2492581014        0.2492581014        0.2492581014



     Writing config-only to output data dir ./Diamond.save/
     NEW-OLD atomic charge density approx. for the potential

     total cpu time spent up to now is        8.5 secs

     Self-consistent Calculation

     iteration #  1     ecut=    40.00 Ry     beta= 0.70
     CG style diagonalization
     ethr =  1.00E-06,  avg # of iterations =  4.7

     Threshold (ethr) on eigenvalues was too large:
     Diagonalizing with lowered threshold

     CG style diagonalization
     ethr =  8.07E-08,  avg # of iterations =  2.5

     total cpu time spent up to now is        9.6 secs

     total energy              =     -23.05587980 Ry
     estimated scf accuracy    <       0.00000657 Ry

     iteration #  2     ecut=    40.00 Ry     beta= 0.70
     CG style diagonalization
     ethr =  8.21E-08,  avg # of iterations =  3.4

     total cpu time spent up to now is       10.1 secs

     total energy              =     -23.05588046 Ry
     estimated scf accuracy    <       0.00000011 Ry

     iteration #  3     ecut=    40.00 Ry     beta= 0.70
     CG style diagonalization
     ethr =  1.38E-09,  avg # of iterations =  3.8

     total cpu time spent up to now is       10.7 secs

     total energy              =     -23.05588049 Ry
     estimated scf accuracy    <          5.4E-09 Ry

     iteration #  4     ecut=    40.00 Ry     beta= 0.70
     CG style diagonalization
     ethr =  6.80E-11,  avg # of iterations =  3.8

     total cpu time spent up to now is       11.3 secs

     End of self-consistent calculation

          k = 0.0000 0.0000 0.0000 (   331 PWs)   bands (ev):

    -7.9980  13.9312  13.9312  13.9339

          k =-0.1677 0.1677-0.1677 (   311 PWs)   bands (ev):

    -7.2085  10.0838  12.8619  12.8640

          k =-0.3353 0.3353-0.3353 (   308 PWs)   bands (ev):

    -4.8832   4.3215  11.5179  11.5199

          k = 0.5030-0.5030 0.5030 (   302 PWs)   bands (ev):

    -1.8928   0.0600  11.0212  11.0231

          k = 0.0000 0.3353 0.0000 (   307 PWs)   bands (ev):

    -6.9461  11.2351  11.2360  11.7535

          k =-0.1677 0.5030-0.1677 (   313 PWs)   bands (ev):

    -5.1332   6.5512   9.9241  10.4528

          k = 0.6707-0.3353 0.6707 (   307 PWs)   bands (ev):

    -2.0033   1.5636   8.8214   9.7950

          k = 0.5030-0.1677 0.5030 (   314 PWs)   bands (ev):

    -3.1439   3.1228   8.0922  10.8486

          k = 0.3353-0.0000 0.3353 (   317 PWs)   bands (ev):

    -5.9064   8.1540   8.9225  12.5043

          k = 0.0000 0.6707 0.0000 (   315 PWs)   bands (ev):

    -3.8540   6.7622   8.3850   8.3857

          k = 0.8384-0.1677 0.8384 (   311 PWs)   bands (ev):

    -1.1707   3.6389   5.9310   8.0476

          k = 0.6707-0.0000 0.6707 (   309 PWs)   bands (ev):

    -0.2575   2.8489   4.1161   9.0435

          k = 0.0000-1.0060 0.0000 (   302 PWs)   bands (ev):

     0.9966   0.9970   7.3595   7.3601

          k = 0.6707-0.3353 1.0060 (   318 PWs)   bands (ev):

    -2.8766   5.1634   6.3192   8.9225

          k = 0.5030-0.1677 0.8384 (   312 PWs)   bands (ev):

    -0.0843   1.8851   5.8894   7.7156

          k =-0.3353-1.0060 0.0000 (   308 PWs)   bands (ev):

     1.6119   1.6124   5.7440   5.7446

          k =-0.1677-0.1677-0.1677 (   311 PWs)   bands (ev):

    -7.2085  10.0849  12.8623  12.8623

          k =-0.3353-0.3353-0.3353 (   308 PWs)   bands (ev):

    -4.8832   4.3221  11.5185  11.5185

          k = 0.5030 0.5030 0.5030 (   302 PWs)   bands (ev):

    -1.8932   0.0609  11.0219  11.0219

          k = 0.5030 0.1677-0.1677 (   313 PWs)   bands (ev):

    -5.1332   6.5514   9.9250  10.4515

          k =-0.5030-0.1677-0.1677 (   313 PWs)   bands (ev):

    -5.1332   6.5521   9.9243  10.4513

          k =-0.3353-0.6707 0.6707 (   307 PWs)   bands (ev):

    -2.0033   1.5637   8.8203   9.7961

          k = 0.3353 0.6707 0.6707 (   307 PWs)   bands (ev):

    -2.0035   1.5643   8.8204   9.7954

          k =-0.1677-0.5030 0.5030 (   314 PWs)   bands (ev):

    -3.1439   3.1228   8.0914  10.8498

          k = 0.1677 0.5030 0.5030 (   314 PWs)   bands (ev):

    -3.1439   3.1234   8.0914  10.8489

          k =-0.0000-0.3353 0.3353 (   317 PWs)   bands (ev):

    -5.9064   8.1530   8.9226  12.5057

          k =-0.1677-0.8384 0.8384 (   311 PWs)   bands (ev):

    -1.1707   3.6393   5.9300   8.0482

          k = 0.1677 0.8384 0.8384 (   311 PWs)   bands (ev):

    -1.1708   3.6397   5.9301   8.0476

          k =-0.0000-0.6707 0.6707 (   309 PWs)   bands (ev):

    -0.2574   2.8483   4.1159   9.0443

          k =-0.3353-0.6707 1.0060 (   318 PWs)   bands (ev):

    -2.8766   5.1642   6.3192   8.9215

          k = 0.1677 0.5030 0.8384 (   312 PWs)   bands (ev):

    -0.0847   1.8862   5.8888   7.7155

          k =-0.8384-0.1677 0.5030 (   312 PWs)   bands (ev):

    -0.0843   1.8851   5.8884   7.7165

     highest occupied level (ev):    13.9339

!    total energy              =     -23.05588049 Ry
     estimated scf accuracy    <          5.0E-11 Ry

     The total energy is the sum of the following terms:
     one-electron contribution =       8.46081281 Ry
     hartree contribution      =       1.87349598 Ry
     xc contribution           =      -7.42162879 Ry
     ewald contribution        =     -25.96856048 Ry

     convergence has been achieved in   4 iterations

     Forces acting on atoms (cartesian axes, Ry/au):

     atom    1 type  1   force =     0.00008853    0.00008853    0.00008853
     atom    2 type  1   force =    -0.00008853   -0.00008853   -0.00008853

     Total force =     0.000217     Total SCF correction =     0.000003


     Computing stress (Cartesian axis) and pressure

          total   stress  (Ry/bohr**3)                   (kbar)     P=       77.68
   0.00052807  -0.00000025  -0.00000025           77.68       -0.04       -0.04
  -0.00000025   0.00052807  -0.00000025           -0.04       77.68       -0.04
  -0.00000025  -0.00000025   0.00052807           -0.04       -0.04       77.68

     Energy error            =      4.9E-05 Ry
     Gradient error          =      8.9E-05 Ry/Bohr

     bfgs converged in   3 scf cycles and   2 bfgs steps
     (criteria: energy <  1.0E-04 Ry, force <  1.0E-03 Ry/Bohr)

     End of BFGS Geometry Optimization

     Final energy             =     -23.0558804926 Ry

     File ./Diamond.bfgs deleted, as requested
Begin final coordinates

ATOMIC_POSITIONS (alat)
C             0.0007418986        0.0007418986        0.0007418986
C             0.2492581014        0.2492581014        0.2492581014
End final coordinates



     Writing all to output data dir ./Diamond.save/
 
     init_run     :      0.52s CPU      0.79s WALL (       1 calls)
     electrons    :      7.47s CPU      9.08s WALL (       3 calls)
     update_pot   :      0.01s CPU      0.02s WALL (       2 calls)
     forces       :      0.07s CPU      0.12s WALL (       3 calls)
     stress       :      0.37s CPU      0.40s WALL (       3 calls)

     Called by init_run:
     wfcinit      :      0.22s CPU      0.30s WALL (       1 calls)
     potinit      :      0.00s CPU      0.03s WALL (       1 calls)
     hinit0       :      0.29s CPU      0.36s WALL (       1 calls)

     Called by electrons:
     c_bands      :      6.54s CPU      7.98s WALL (      15 calls)
     sum_band     :      0.83s CPU      0.90s WALL (      15 calls)
     v_of_rho     :      0.04s CPU      0.05s WALL (      17 calls)
     newd         :      0.05s CPU      0.08s WALL (      17 calls)
     mix_rho      :      0.01s CPU      0.01s WALL (      15 calls)

     Called by c_bands:
     init_us_2    :      0.23s CPU      0.28s WALL (    1184 calls)
     init_us_2:cp :      0.21s CPU      0.27s WALL (    1184 calls)
     ccgdiagg     :      5.16s CPU      5.78s WALL (     480 calls)
     wfcrot       :      1.29s CPU      1.44s WALL (     384 calls)

     Called by *cgdiagg:
     h_psi        :      5.31s CPU      5.87s WALL (    6475 calls)
     s_psi        :      0.24s CPU      0.29s WALL (   12566 calls)

     Called by h_psi:
     h_psi:calbec :      0.22s CPU      0.26s WALL (    6475 calls)
     vloc_psi     :      4.70s CPU      5.16s WALL (    6475 calls)
     add_vuspsi   :      0.14s CPU      0.16s WALL (    6475 calls)
     hs_1psi      :      4.55s CPU      5.07s WALL (    6091 calls)
     s_1psi       :      0.41s CPU      0.46s WALL (    6091 calls)

     General routines
     calbec       :      0.28s CPU      0.33s WALL (   13526 calls)
     fft          :      0.04s CPU      0.07s WALL (      95 calls)
     ffts         :      0.00s CPU      0.00s WALL (      15 calls)
     fftw         :      4.81s CPU      5.27s WALL (   17430 calls)
 
     Parallel routines
 
     PWSCF        :      8.88s CPU     11.95s WALL

 
   This run was terminated on:  19: 5: 9  14Mar2022            

=------------------------------------------------------------------------------=
   JOB DONE.
=------------------------------------------------------------------------------=
