
     Program PWSCF v.7.0 starts on 14Mar2022 at 19: 5:10 

     This program is part of the open-source Quantum ESPRESSO suite
     for quantum simulation of materials; please cite
         "P. Giannozzi et al., J. Phys.:Condens. Matter 21 395502 (2009);
         "P. Giannozzi et al., J. Phys.:Condens. Matter 29 465901 (2017);
         "P. Giannozzi et al., J. Chem. Phys. 152 154105 (2020);
          URL http://www.quantum-espresso.org", 
     in publications or presentations arising from this work. More details at
     http://www.quantum-espresso.org/quote

     Parallel version (MPI), running on     1 processors

     MPI processes distributed on     1 nodes
     90093 MiB available memory on the printing compute node when the environment starts
 
     Waiting for input...
     Reading input from standard input
Warning: card &CELL ignored
Warning: card  CELL_DYNAMICS = 'BFGS', ignored
Warning: card  PRESS=0.1D0, ignored
Warning: card / ignored
     Message from routine read_cards :
     DEPRECATED: no units specified in ATOMIC_POSITIONS card
     Message from routine read_cards :
     ATOMIC_POSITIONS: units set to alat

     Current dimensions of program PWSCF are:
     Max number of different atomic species (ntypx) = 10
     Max number of k-points (npk) =  40000
     Max angular momentum in pseudopotentials (lmaxx) =  4
     Message from routine setup:
     using ibrav=0 with symmetry is DISCOURAGED, use correct ibrav instead

     Subspace diagonalization in iterative solution of the eigenvalue problem:
     a serial algorithm will be used

 
     G-vector sticks info
     --------------------
     sticks:   dense  smooth     PW     G-vecs:    dense   smooth      PW
     Sum         253     253     85                 2565     2565     531
 
     Using Slab Decomposition
 


     bravais-lattice index     =            0
     lattice parameter (alat)  =       6.6780  a.u.
     unit-cell volume          =      73.5626 (a.u.)^3
     number of atoms/cell      =            2
     number of atomic types    =            1
     number of electrons       =         8.00
     number of Kohn-Sham states=            4
     kinetic-energy cutoff     =      40.0000  Ry
     charge density cutoff     =     160.0000  Ry
     scf convergence threshold =      1.0E-08
     mixing beta               =       0.7000
     number of iterations used =            8  plain     mixing
     energy convergence thresh.=      1.0E-04
     force convergence thresh. =      1.0E-03
     Exchange-correlation= SLA  PZ   NOGX NOGC
                           (   1   1   0   0   0   0   0)
     nstep                     =           50


     celldm(1)=   6.678000  celldm(2)=   0.000000  celldm(3)=   0.000000
     celldm(4)=   0.000000  celldm(5)=   0.000000  celldm(6)=   0.000000

     crystal axes: (cart. coord. in units of alat)
               a(1) = (  -0.498000   0.000000   0.498000 )  
               a(2) = (   0.000000   0.498000   0.498000 )  
               a(3) = (  -0.498000   0.498000   0.000000 )  

     reciprocal axes: (cart. coord. in units 2 pi/alat)
               b(1) = ( -1.004016 -1.004016  1.004016 )  
               b(2) = (  1.004016  1.004016  1.004016 )  
               b(3) = ( -1.004016  1.004016 -1.004016 )  


     PseudoPot. # 1 for C  read from file:
     ./C_LDA.UPF
     MD5 check sum: 407c1fe918d93b14b177d5600f28733c
     Pseudo is Ultrasoft + core correction, Zval =  4.0
     Generated by new atomic code, or converted to UPF format
     Using radial grid of  721 points,  4 beta functions with: 
                l(1) =   0
                l(2) =   0
                l(3) =   1
                l(4) =   1
     Q(r) pseudized with  8 coefficients,  rinner =    1.100   1.100   1.100


     atomic species   valence    mass     pseudopotential
        C              4.00    12.01100     C ( 1.00)

      6 Sym. Ops. (no inversion) found



   Cartesian axes

     site n.     atom                  positions (alat units)
         1           C   tau(   1) = (   0.0000000   0.0000000   0.0000000  )
         2           C   tau(   2) = (   0.2500000   0.2500000   0.2500000  )

     number of k points=    32
                       cart. coord. in units 2pi/alat
        k(    1) = (   0.0000000   0.0000000   0.0000000), wk =   0.0092593
        k(    2) = (  -0.1673360   0.1673360  -0.1673360), wk =   0.0555556
        k(    3) = (  -0.3346720   0.3346720  -0.3346720), wk =   0.0555556
        k(    4) = (   0.5020080  -0.5020080   0.5020080), wk =   0.0277778
        k(    5) = (   0.0000000   0.3346720   0.0000000), wk =   0.0555556
        k(    6) = (  -0.1673360   0.5020080  -0.1673360), wk =   0.0555556
        k(    7) = (   0.6693440  -0.3346720   0.6693440), wk =   0.0555556
        k(    8) = (   0.5020080  -0.1673360   0.5020080), wk =   0.0555556
        k(    9) = (   0.3346720  -0.0000000   0.3346720), wk =   0.0555556
        k(   10) = (   0.0000000   0.6693440   0.0000000), wk =   0.0555556
        k(   11) = (   0.8366801  -0.1673360   0.8366801), wk =   0.0555556
        k(   12) = (   0.6693440  -0.0000000   0.6693440), wk =   0.0555556
        k(   13) = (   0.0000000  -1.0040161   0.0000000), wk =   0.0277778
        k(   14) = (   0.6693440  -0.3346720   1.0040161), wk =   0.1111111
        k(   15) = (   0.5020080  -0.1673360   0.8366801), wk =   0.1111111
        k(   16) = (  -0.3346720  -1.0040161   0.0000000), wk =   0.1111111
        k(   17) = (  -0.1673360  -0.1673360  -0.1673360), wk =   0.0185185
        k(   18) = (  -0.3346720  -0.3346720  -0.3346720), wk =   0.0185185
        k(   19) = (   0.5020080   0.5020080   0.5020080), wk =   0.0092593
        k(   20) = (   0.5020080   0.1673360  -0.1673360), wk =   0.1111111
        k(   21) = (  -0.5020080  -0.1673360  -0.1673360), wk =   0.0555556
        k(   22) = (  -0.3346720  -0.6693440   0.6693440), wk =   0.1111111
        k(   23) = (   0.3346720   0.6693440   0.6693440), wk =   0.0555556
        k(   24) = (  -0.1673360  -0.5020080   0.5020080), wk =   0.1111111
        k(   25) = (   0.1673360   0.5020080   0.5020080), wk =   0.0555556
        k(   26) = (  -0.0000000  -0.3346720   0.3346720), wk =   0.0555556
        k(   27) = (  -0.1673360  -0.8366801   0.8366801), wk =   0.1111111
        k(   28) = (   0.1673360   0.8366801   0.8366801), wk =   0.0555556
        k(   29) = (  -0.0000000  -0.6693440   0.6693440), wk =   0.0555556
        k(   30) = (  -0.3346720  -0.6693440   1.0040161), wk =   0.1111111
        k(   31) = (   0.1673360   0.5020080   0.8366801), wk =   0.0555556
        k(   32) = (  -0.8366801  -0.1673360   0.5020080), wk =   0.0555556

     Dense  grid:     2565 G-vectors     FFT dimensions: (  20,  20,  20)

     Estimated max dynamical RAM per process >       4.57 MB

     Initial potential from superposition of free atoms

     starting charge       7.9999, renormalised to       8.0000
     Starting wfcs are    8 randomized atomic wfcs

     total cpu time spent up to now is        0.9 secs

     Self-consistent Calculation

     iteration #  1     ecut=    40.00 Ry     beta= 0.70
     CG style diagonalization
     ethr =  1.00E-02,  avg # of iterations =  3.0

     total cpu time spent up to now is        1.4 secs

     total energy              =     -23.03870357 Ry
     estimated scf accuracy    <       0.14476573 Ry

     iteration #  2     ecut=    40.00 Ry     beta= 0.70
     CG style diagonalization
     ethr =  1.81E-03,  avg # of iterations =  3.6

     total cpu time spent up to now is        2.0 secs

     total energy              =     -23.05553067 Ry
     estimated scf accuracy    <       0.00145973 Ry

     iteration #  3     ecut=    40.00 Ry     beta= 0.70
     CG style diagonalization
     ethr =  1.82E-05,  avg # of iterations =  4.0

     total cpu time spent up to now is        2.6 secs

     total energy              =     -23.05603049 Ry
     estimated scf accuracy    <       0.00004733 Ry

     iteration #  4     ecut=    40.00 Ry     beta= 0.70
     CG style diagonalization
     ethr =  5.92E-07,  avg # of iterations =  4.1

     total cpu time spent up to now is        3.2 secs

     total energy              =     -23.05604760 Ry
     estimated scf accuracy    <       0.00000230 Ry

     iteration #  5     ecut=    40.00 Ry     beta= 0.70
     CG style diagonalization
     ethr =  2.87E-08,  avg # of iterations =  4.0

     total cpu time spent up to now is        3.8 secs

     total energy              =     -23.05604837 Ry
     estimated scf accuracy    <       0.00000002 Ry

     iteration #  6     ecut=    40.00 Ry     beta= 0.70
     CG style diagonalization
     ethr =  2.68E-10,  avg # of iterations =  4.5

     total cpu time spent up to now is        4.5 secs

     End of self-consistent calculation

          k = 0.0000 0.0000 0.0000 (   331 PWs)   bands (ev):

    -8.0273  13.7645  13.7645  13.9326

          k =-0.1673 0.1673-0.1673 (   320 PWs)   bands (ev):

    -7.2410   9.9716  12.7052  12.8324

          k =-0.3347 0.3347-0.3347 (   308 PWs)   bands (ev):

    -4.9257   4.2415  11.3675  11.4858

          k = 0.5020-0.5020 0.5020 (   332 PWs)   bands (ev):

    -1.9525   0.0032  10.8717  10.9898

          k = 0.0000 0.3347 0.0000 (   307 PWs)   bands (ev):

    -6.9796  11.1114  11.1627  11.6505

          k =-0.1673 0.5020-0.1673 (   313 PWs)   bands (ev):

    -5.1745   6.4502   9.8043  10.4158

          k = 0.6693-0.3347 0.6693 (   315 PWs)   bands (ev):

    -2.0592   1.4943   8.7788   9.6702

          k = 0.5020-0.1673 0.5020 (   314 PWs)   bands (ev):

    -3.1942   3.0501   8.0459  10.7132

          k = 0.3347-0.0000 0.3347 (   317 PWs)   bands (ev):

    -5.9440   8.0926   8.8365  12.3582

          k = 0.0000 0.6693 0.0000 (   323 PWs)   bands (ev):

    -3.9005   6.6672   8.2857   8.3264

          k = 0.8367-0.1673 0.8367 (   318 PWs)   bands (ev):

    -1.2284   3.5332   5.9100   7.9477

          k = 0.6693-0.0000 0.6693 (   309 PWs)   bands (ev):

    -0.3302   2.7916   4.0664   8.9368

          k = 0.0000-1.0040 0.0000 (   302 PWs)   bands (ev):

     0.9170   0.9408   7.2677   7.3034

          k = 0.6693-0.3347 1.0040 (   318 PWs)   bands (ev):

    -2.9274   5.0563   6.2488   8.8676

          k = 0.5020-0.1673 0.8367 (   312 PWs)   bands (ev):

    -0.1495   1.8103   5.8369   7.6283

          k =-0.3347-1.0040 0.0000 (   308 PWs)   bands (ev):

     1.5214   1.5544   5.6605   5.7008

          k =-0.1673-0.1673-0.1673 (   320 PWs)   bands (ev):

    -7.2407  10.0412  12.7235  12.7235

          k =-0.3347-0.3347-0.3347 (   308 PWs)   bands (ev):

    -4.9255   4.2795  11.4029  11.4029

          k = 0.5020 0.5020 0.5020 (   332 PWs)   bands (ev):

    -1.9752   0.0567  10.9127  10.9127

          k = 0.5020 0.1673-0.1673 (   313 PWs)   bands (ev):

    -5.1743   6.4615   9.8578  10.3404

          k =-0.5020-0.1673-0.1673 (   313 PWs)   bands (ev):

    -5.1741   6.5078   9.8191  10.3246

          k =-0.3347-0.6693 0.6693 (   315 PWs)   bands (ev):

    -2.0596   1.4976   8.7130   9.7355

          k = 0.3347 0.6693 0.6693 (   315 PWs)   bands (ev):

    -2.0685   1.5396   8.7155   9.6918

          k =-0.1673-0.5020 0.5020 (   314 PWs)   bands (ev):

    -3.1941   3.0463   7.9936  10.7878

          k = 0.1673 0.5020 0.5020 (   314 PWs)   bands (ev):

    -3.1962   3.0865   7.9944  10.7324

          k =-0.0000-0.3347 0.3347 (   317 PWs)   bands (ev):

    -5.9445   8.0328   8.8409  12.4447

          k =-0.1673-0.8367 0.8367 (   318 PWs)   bands (ev):

    -1.2292   3.5577   5.8460   7.9897

          k = 0.1673 0.8367 0.8367 (   318 PWs)   bands (ev):

    -1.2325   3.5851   5.8536   7.9524

          k =-0.0000-0.6693 0.6693 (   309 PWs)   bands (ev):

    -0.3197   2.7582   4.0533   8.9839

          k =-0.3347-0.6693 1.0040 (   318 PWs)   bands (ev):

    -2.9282   5.1036   6.2478   8.8100

          k = 0.1673 0.5020 0.8367 (   312 PWs)   bands (ev):

    -0.1751   1.8761   5.7990   7.6218

          k =-0.8367-0.1673 0.5020 (   312 PWs)   bands (ev):

    -0.1483   1.8137   5.7781   7.6880

     highest occupied level (ev):    13.9326

!    total energy              =     -23.05604839 Ry
     estimated scf accuracy    <          1.2E-10 Ry

     The total energy is the sum of the following terms:
     one-electron contribution =       8.39216823 Ry
     hartree contribution      =       1.87937988 Ry
     xc contribution           =      -7.41130212 Ry
     ewald contribution        =     -25.91629438 Ry

     convergence has been achieved in   6 iterations

     Forces acting on atoms (cartesian axes, Ry/au):

     atom    1 type  1   force =     0.00539125    0.00539125    0.00539125
     atom    2 type  1   force =    -0.00539125   -0.00539125   -0.00539125

     Total force =     0.013206     Total SCF correction =     0.000001


     Computing stress (Cartesian axis) and pressure

          total   stress  (Ry/bohr**3)                   (kbar)     P=       48.46
   0.00032944  -0.00001592  -0.00001592           48.46       -2.34       -2.34
  -0.00001592   0.00032944  -0.00001592           -2.34       48.46       -2.34
  -0.00001592  -0.00001592   0.00032944           -2.34       -2.34       48.46


     BFGS Geometry Optimization
     Energy error            =      0.0E+00 Ry
     Gradient error          =      5.4E-03 Ry/Bohr

     number of scf cycles    =   1
     number of bfgs steps    =   0

     energy             new  =     -23.0560483925 Ry

     new trust radius        =       0.0093379187 bohr
     new conv_thr            =       0.0000000100 Ry


ATOMIC_POSITIONS (alat)
C             0.0008073150        0.0008073150        0.0008073150
C             0.2491926850        0.2491926850        0.2491926850



     Writing config-only to output data dir ./Diamond.save/
     NEW-OLD atomic charge density approx. for the potential

     total cpu time spent up to now is        4.8 secs

     Self-consistent Calculation

     iteration #  1     ecut=    40.00 Ry     beta= 0.70
     CG style diagonalization
     ethr =  1.00E-06,  avg # of iterations =  5.4

     total cpu time spent up to now is        5.5 secs

     total energy              =     -23.05607984 Ry
     estimated scf accuracy    <       0.00001811 Ry

     iteration #  2     ecut=    40.00 Ry     beta= 0.70
     CG style diagonalization
     ethr =  2.26E-07,  avg # of iterations =  3.5

     total cpu time spent up to now is        6.1 secs

     total energy              =     -23.05608217 Ry
     estimated scf accuracy    <       0.00000032 Ry

     iteration #  3     ecut=    40.00 Ry     beta= 0.70
     CG style diagonalization
     ethr =  3.98E-09,  avg # of iterations =  3.9

     total cpu time spent up to now is        6.7 secs

     total energy              =     -23.05608229 Ry
     estimated scf accuracy    <       0.00000002 Ry

     iteration #  4     ecut=    40.00 Ry     beta= 0.70
     CG style diagonalization
     ethr =  2.09E-10,  avg # of iterations =  3.8

     total cpu time spent up to now is        7.3 secs

     End of self-consistent calculation

          k = 0.0000 0.0000 0.0000 (   331 PWs)   bands (ev):

    -8.0272  13.7516  13.8550  13.8550

          k =-0.1673 0.1673-0.1673 (   320 PWs)   bands (ev):

    -7.2408  10.0001  12.7117  12.7895

          k =-0.3347 0.3347-0.3347 (   308 PWs)   bands (ev):

    -4.9255   4.2570  11.3808  11.4535

          k = 0.5020-0.5020 0.5020 (   332 PWs)   bands (ev):

    -1.9616   0.0250  10.8872  10.9599

          k = 0.0000 0.3347 0.0000 (   307 PWs)   bands (ev):

    -6.9795  11.1203  11.1588  11.6459

          k =-0.1673 0.5020-0.1673 (   313 PWs)   bands (ev):

    -5.1741   6.4829   9.8565  10.3151

          k = 0.6693-0.3347 0.6693 (   315 PWs)   bands (ev):

    -2.0631   1.5154   8.7016   9.7302

          k = 0.5020-0.1673 0.5020 (   314 PWs)   bands (ev):

    -3.1948   3.0619   7.9834  10.7807

          k = 0.3347-0.0000 0.3347 (   317 PWs)   bands (ev):

    -5.9443   8.0441   8.8411  12.4274

          k = 0.0000 0.6693 0.0000 (   323 PWs)   bands (ev):

    -3.9003   6.6680   8.2939   8.3176

          k = 0.8367-0.1673 0.8367 (   318 PWs)   bands (ev):

    -1.2306   3.5744   5.8356   7.9831

          k = 0.6693-0.0000 0.6693 (   309 PWs)   bands (ev):

    -0.3215   2.7646   4.0562   8.9746

          k = 0.0000-1.0040 0.0000 (   302 PWs)   bands (ev):

     0.9215   0.9367   7.2748   7.2963

          k = 0.6693-0.3347 1.0040 (   318 PWs)   bands (ev):

    -2.9279   5.0951   6.2475   8.8213

          k = 0.5020-0.1673 0.8367 (   312 PWs)   bands (ev):

    -0.1593   1.8384   5.7978   7.6500

          k =-0.3347-1.0040 0.0000 (   308 PWs)   bands (ev):

     1.5276   1.5485   5.6684   5.6929

          k =-0.1673-0.1673-0.1673 (   320 PWs)   bands (ev):

    -7.2410   9.9574  12.7780  12.7780

          k =-0.3347-0.3347-0.3347 (   308 PWs)   bands (ev):

    -4.9256   4.2336  11.4315  11.4315

          k = 0.5020 0.5020 0.5020 (   332 PWs)   bands (ev):

    -1.9474  -0.0082  10.9343  10.9343

          k = 0.5020 0.1673-0.1673 (   313 PWs)   bands (ev):

    -5.1742   6.4758   9.8202  10.3650

          k =-0.5020-0.1673-0.1673 (   313 PWs)   bands (ev):

    -5.1744   6.4474   9.8473  10.3710

          k =-0.3347-0.6693 0.6693 (   315 PWs)   bands (ev):

    -2.0629   1.5133   8.7403   9.6920

          k = 0.3347 0.6693 0.6693 (   315 PWs)   bands (ev):

    -2.0574   1.4874   8.7404   9.7168

          k =-0.1673-0.5020 0.5020 (   314 PWs)   bands (ev):

    -3.1948   3.0642   8.0150  10.7356

          k = 0.1673 0.5020 0.5020 (   314 PWs)   bands (ev):

    -3.1936   3.0395   8.0150  10.7687

          k =-0.0000-0.3347 0.3347 (   317 PWs)   bands (ev):

    -5.9440   8.0822   8.8365  12.3751

          k =-0.1673-0.8367 0.8367 (   318 PWs)   bands (ev):

    -1.2301   3.5590   5.8748   7.9579

          k = 0.1673 0.8367 0.8367 (   318 PWs)   bands (ev):

    -1.2280   3.5421   5.8706   7.9802

          k =-0.0000-0.6693 0.6693 (   309 PWs)   bands (ev):

    -0.3280   2.7856   4.0635   8.9461

          k =-0.3347-0.6693 1.0040 (   318 PWs)   bands (ev):

    -2.9274   5.0653   6.2493   8.8560

          k = 0.1673 0.5020 0.8367 (   312 PWs)   bands (ev):

    -0.1431   1.7976   5.8215   7.6534

          k =-0.8367-0.1673 0.5020 (   312 PWs)   bands (ev):

    -0.1600   1.8364   5.8345   7.6128

     highest occupied level (ev):    13.8550

!    total energy              =     -23.05608229 Ry
     estimated scf accuracy    <          2.0E-10 Ry

     The total energy is the sum of the following terms:
     one-electron contribution =       8.39222618 Ry
     hartree contribution      =       1.87935638 Ry
     xc contribution           =      -7.41129647 Ry
     ewald contribution        =     -25.91636839 Ry

     convergence has been achieved in   4 iterations

     Forces acting on atoms (cartesian axes, Ry/au):

     atom    1 type  1   force =    -0.00337455   -0.00337455   -0.00337455
     atom    2 type  1   force =     0.00337455    0.00337455    0.00337455

     Total force =     0.008266     Total SCF correction =     0.000014


     Computing stress (Cartesian axis) and pressure

          total   stress  (Ry/bohr**3)                   (kbar)     P=       48.36
   0.00032874   0.00001033   0.00001033           48.36        1.52        1.52
   0.00001033   0.00032874   0.00001033            1.52       48.36        1.52
   0.00001033   0.00001033   0.00032874            1.52        1.52       48.36

     Energy error            =      3.4E-05 Ry
     Gradient error          =      3.4E-03 Ry/Bohr

     number of scf cycles    =   2
     number of bfgs steps    =   1

     energy             old  =     -23.0560483925 Ry
     energy             new  =     -23.0560822921 Ry

     CASE: energy            _new < energy            _old

     new trust radius        =       0.0035947947 bohr
     new conv_thr            =            1.0E-10 Ry


ATOMIC_POSITIONS (alat)
C             0.0004965250        0.0004965250        0.0004965250
C             0.2495034750        0.2495034750        0.2495034750



     Writing config-only to output data dir ./Diamond.save/
     NEW-OLD atomic charge density approx. for the potential

     total cpu time spent up to now is        7.5 secs

     Self-consistent Calculation

     iteration #  1     ecut=    40.00 Ry     beta= 0.70
     CG style diagonalization
     ethr =  1.00E-06,  avg # of iterations =  4.1

     Threshold (ethr) on eigenvalues was too large:
     Diagonalizing with lowered threshold

     CG style diagonalization
     ethr =  3.49E-08,  avg # of iterations =  3.2

     total cpu time spent up to now is        8.7 secs

     total energy              =     -23.05610275 Ry
     estimated scf accuracy    <       0.00000270 Ry

     iteration #  2     ecut=    40.00 Ry     beta= 0.70
     CG style diagonalization
     ethr =  3.38E-08,  avg # of iterations =  3.4

     total cpu time spent up to now is        9.2 secs

     total energy              =     -23.05610302 Ry
     estimated scf accuracy    <       0.00000005 Ry

     iteration #  3     ecut=    40.00 Ry     beta= 0.70
     CG style diagonalization
     ethr =  5.96E-10,  avg # of iterations =  3.8

     total cpu time spent up to now is        9.8 secs

     total energy              =     -23.05610303 Ry
     estimated scf accuracy    <          2.3E-09 Ry

     iteration #  4     ecut=    40.00 Ry     beta= 0.70
     CG style diagonalization
     ethr =  2.89E-11,  avg # of iterations =  3.8

     total cpu time spent up to now is       10.4 secs

     End of self-consistent calculation

          k = 0.0000 0.0000 0.0000 (   331 PWs)   bands (ev):

    -8.0272  13.8200  13.8200  13.8212

          k =-0.1673 0.1673-0.1673 (   320 PWs)   bands (ev):

    -7.2408   9.9895  12.7570  12.7579

          k =-0.3347 0.3347-0.3347 (   308 PWs)   bands (ev):

    -4.9255   4.2511  11.4203  11.4211

          k = 0.5020-0.5020 0.5020 (   332 PWs)   bands (ev):

    -1.9580   0.0166  10.9258  10.9266

          k = 0.0000 0.3347 0.0000 (   307 PWs)   bands (ev):

    -6.9795  11.1406  11.1410  11.6433

          k =-0.1673 0.5020-0.1673 (   313 PWs)   bands (ev):

    -5.1742   6.4704   9.8364  10.3537

          k = 0.6693-0.3347 0.6693 (   315 PWs)   bands (ev):

    -2.0615   1.5073   8.7313   9.7071

          k = 0.5020-0.1673 0.5020 (   314 PWs)   bands (ev):

    -3.1945   3.0574   8.0075  10.7547

          k = 0.3347-0.0000 0.3347 (   317 PWs)   bands (ev):

    -5.9441   8.0635   8.8387  12.4007

          k = 0.0000 0.6693 0.0000 (   323 PWs)   bands (ev):

    -3.9003   6.6684   8.3054   8.3057

          k = 0.8367-0.1673 0.8367 (   318 PWs)   bands (ev):

    -1.2296   3.5585   5.8643   7.9695

          k = 0.6693-0.0000 0.6693 (   309 PWs)   bands (ev):

    -0.3248   2.7753   4.0598   8.9601

          k = 0.0000-1.0040 0.0000 (   302 PWs)   bands (ev):

     0.9290   0.9292   7.2853   7.2856

          k = 0.6693-0.3347 1.0040 (   318 PWs)   bands (ev):

    -2.9276   5.0801   6.2485   8.8387

          k = 0.5020-0.1673 0.8367 (   312 PWs)   bands (ev):

    -0.1553   1.8276   5.8131   7.6414

          k =-0.3347-1.0040 0.0000 (   308 PWs)   bands (ev):

     1.5380   1.5383   5.6804   5.6807

          k =-0.1673-0.1673-0.1673 (   320 PWs)   bands (ev):

    -7.2408   9.9900  12.7571  12.7571

          k =-0.3347-0.3347-0.3347 (   308 PWs)   bands (ev):

    -4.9255   4.2514  11.4205  11.4205

          k = 0.5020 0.5020 0.5020 (   332 PWs)   bands (ev):

    -1.9582   0.0170  10.9261  10.9261

          k = 0.5020 0.1673-0.1673 (   313 PWs)   bands (ev):

    -5.1742   6.4705   9.8368  10.3532

          k =-0.5020-0.1673-0.1673 (   313 PWs)   bands (ev):

    -5.1742   6.4708   9.8365  10.3531

          k =-0.3347-0.6693 0.6693 (   315 PWs)   bands (ev):

    -2.0615   1.5073   8.7309   9.7075

          k = 0.3347 0.6693 0.6693 (   315 PWs)   bands (ev):

    -2.0616   1.5076   8.7309   9.7072

          k =-0.1673-0.5020 0.5020 (   314 PWs)   bands (ev):

    -3.1945   3.0574   8.0071  10.7552

          k = 0.1673 0.5020 0.5020 (   314 PWs)   bands (ev):

    -3.1945   3.0577   8.0071  10.7548

          k =-0.0000-0.3347 0.3347 (   317 PWs)   bands (ev):

    -5.9442   8.0631   8.8388  12.4013

          k =-0.1673-0.8367 0.8367 (   318 PWs)   bands (ev):

    -1.2296   3.5587   5.8638   7.9698

          k = 0.1673 0.8367 0.8367 (   318 PWs)   bands (ev):

    -1.2297   3.5589   5.8638   7.9696

          k =-0.0000-0.6693 0.6693 (   309 PWs)   bands (ev):

    -0.3247   2.7750   4.0597   8.9604

          k =-0.3347-0.6693 1.0040 (   318 PWs)   bands (ev):

    -2.9276   5.0804   6.2484   8.8383

          k = 0.1673 0.5020 0.8367 (   312 PWs)   bands (ev):

    -0.1555   1.8281   5.8128   7.6413

          k =-0.8367-0.1673 0.5020 (   312 PWs)   bands (ev):

    -0.1553   1.8276   5.8127   7.6418

     highest occupied level (ev):    13.8212

!    total energy              =     -23.05610303 Ry
     estimated scf accuracy    <          2.9E-11 Ry

     The total energy is the sum of the following terms:
     one-electron contribution =       8.39225567 Ry
     hartree contribution      =       1.87935260 Ry
     xc contribution           =      -7.41129653 Ry
     ewald contribution        =     -25.91641477 Ry

     convergence has been achieved in   4 iterations

     Forces acting on atoms (cartesian axes, Ry/au):

     atom    1 type  1   force =     0.00003677    0.00003677    0.00003677
     atom    2 type  1   force =    -0.00003677   -0.00003677   -0.00003677

     Total force =     0.000090     Total SCF correction =     0.000005


     Computing stress (Cartesian axis) and pressure

          total   stress  (Ry/bohr**3)                   (kbar)     P=       48.34
   0.00032861  -0.00000006  -0.00000006           48.34       -0.01       -0.01
  -0.00000006   0.00032861  -0.00000006           -0.01       48.34       -0.01
  -0.00000006  -0.00000006   0.00032861           -0.01       -0.01       48.34

     Energy error            =      2.1E-05 Ry
     Gradient error          =      3.7E-05 Ry/Bohr

     bfgs converged in   3 scf cycles and   2 bfgs steps
     (criteria: energy <  1.0E-04 Ry, force <  1.0E-03 Ry/Bohr)

     End of BFGS Geometry Optimization

     Final energy             =     -23.0561030317 Ry

     File ./Diamond.bfgs deleted, as requested
Begin final coordinates

ATOMIC_POSITIONS (alat)
C             0.0004965250        0.0004965250        0.0004965250
C             0.2495034750        0.2495034750        0.2495034750
End final coordinates



     Writing all to output data dir ./Diamond.save/
 
     init_run     :      0.51s CPU      0.54s WALL (       1 calls)
     electrons    :      7.42s CPU      8.95s WALL (       3 calls)
     update_pot   :      0.01s CPU      0.02s WALL (       2 calls)
     forces       :      0.07s CPU      0.08s WALL (       3 calls)
     stress       :      0.37s CPU      0.37s WALL (       3 calls)

     Called by init_run:
     wfcinit      :      0.21s CPU      0.22s WALL (       1 calls)
     potinit      :      0.00s CPU      0.01s WALL (       1 calls)
     hinit0       :      0.28s CPU      0.30s WALL (       1 calls)

     Called by electrons:
     c_bands      :      6.49s CPU      7.91s WALL (      15 calls)
     sum_band     :      0.83s CPU      0.87s WALL (      15 calls)
     v_of_rho     :      0.04s CPU      0.04s WALL (      17 calls)
     newd         :      0.05s CPU      0.06s WALL (      17 calls)
     mix_rho      :      0.01s CPU      0.01s WALL (      15 calls)

     Called by c_bands:
     init_us_2    :      0.23s CPU      0.28s WALL (    1184 calls)
     init_us_2:cp :      0.22s CPU      0.26s WALL (    1184 calls)
     ccgdiagg     :      5.12s CPU      5.70s WALL (     480 calls)
     wfcrot       :      1.29s CPU      1.38s WALL (     384 calls)

     Called by *cgdiagg:
     h_psi        :      5.27s CPU      5.79s WALL (    6406 calls)
     s_psi        :      0.24s CPU      0.28s WALL (   12428 calls)

     Called by h_psi:
     h_psi:calbec :      0.22s CPU      0.24s WALL (    6406 calls)
     vloc_psi     :      4.67s CPU      5.11s WALL (    6406 calls)
     add_vuspsi   :      0.13s CPU      0.16s WALL (    6406 calls)
     hs_1psi      :      4.51s CPU      5.01s WALL (    6022 calls)
     s_1psi       :      0.40s CPU      0.45s WALL (    6022 calls)

     General routines
     calbec       :      0.27s CPU      0.32s WALL (   13388 calls)
     fft          :      0.03s CPU      0.05s WALL (      95 calls)
     ffts         :      0.00s CPU      0.00s WALL (      15 calls)
     fftw         :      4.78s CPU      5.22s WALL (   17292 calls)
 
     Parallel routines
 
     PWSCF        :      8.82s CPU     10.86s WALL

 
   This run was terminated on:  19: 5:21  14Mar2022            

=------------------------------------------------------------------------------=
   JOB DONE.
=------------------------------------------------------------------------------=
