
     Program PWSCF v.7.0 starts on 14Mar2022 at 20:53:44 

     This program is part of the open-source Quantum ESPRESSO suite
     for quantum simulation of materials; please cite
         "P. Giannozzi et al., J. Phys.:Condens. Matter 21 395502 (2009);
         "P. Giannozzi et al., J. Phys.:Condens. Matter 29 465901 (2017);
         "P. Giannozzi et al., J. Chem. Phys. 152 154105 (2020);
          URL http://www.quantum-espresso.org", 
     in publications or presentations arising from this work. More details at
     http://www.quantum-espresso.org/quote

     Parallel version (MPI), running on     1 processors

     MPI processes distributed on     1 nodes
     90343 MiB available memory on the printing compute node when the environment starts
 
     Waiting for input...
     Reading input from standard input
Warning: card &CELL ignored
Warning: card  CELL_DYNAMICS = 'BFGS', ignored
Warning: card  PRESS=0.1D0, ignored
Warning: card / ignored
     Message from routine read_cards :
     DEPRECATED: no units specified in ATOMIC_POSITIONS card
     Message from routine read_cards :
     ATOMIC_POSITIONS: units set to alat

     Current dimensions of program PWSCF are:
     Max number of different atomic species (ntypx) = 10
     Max number of k-points (npk) =  40000
     Max angular momentum in pseudopotentials (lmaxx) =  4

     Subspace diagonalization in iterative solution of the eigenvalue problem:
     a serial algorithm will be used

 
     G-vector sticks info
     --------------------
     sticks:   dense  smooth     PW     G-vecs:    dense   smooth      PW
     Sum         253     253     85                 2629     2629     537
 
     Using Slab Decomposition
 


     bravais-lattice index     =            0
     lattice parameter (alat)  =       6.6800  a.u.
     unit-cell volume          =      74.5187 (a.u.)^3
     number of atoms/cell      =            2
     number of atomic types    =            1
     number of electrons       =         8.00
     number of Kohn-Sham states=            4
     kinetic-energy cutoff     =      40.0000  Ry
     charge density cutoff     =     160.0000  Ry
     scf convergence threshold =      1.0E-08
     mixing beta               =       0.7000
     number of iterations used =            8  plain     mixing
     energy convergence thresh.=      1.0E-04
     force convergence thresh. =      1.0E-03
     Exchange-correlation= SLA  PZ   NOGX NOGC
                           (   1   1   0   0   0   0   0)
     nstep                     =           50


     celldm(1)=   6.680000  celldm(2)=   0.000000  celldm(3)=   0.000000
     celldm(4)=   0.000000  celldm(5)=   0.000000  celldm(6)=   0.000000

     crystal axes: (cart. coord. in units of alat)
               a(1) = (  -0.500000  -0.001500   0.498500 )  
               a(2) = (   0.001500   0.500000   0.498500 )  
               a(3) = (  -0.500000   0.500000   0.000000 )  

     reciprocal axes: (cart. coord. in units 2 pi/alat)
               b(1) = ( -0.997009 -0.997009  1.003009 )  
               b(2) = (  0.997009  0.997009  1.003009 )  
               b(3) = ( -1.000000  1.000000 -1.000000 )  


     PseudoPot. # 1 for C  read from file:
     ./C_LDA.UPF
     MD5 check sum: 407c1fe918d93b14b177d5600f28733c
     Pseudo is Ultrasoft + core correction, Zval =  4.0
     Generated by new atomic code, or converted to UPF format
     Using radial grid of  721 points,  4 beta functions with: 
                l(1) =   0
                l(2) =   0
                l(3) =   1
                l(4) =   1
     Q(r) pseudized with  8 coefficients,  rinner =    1.100   1.100   1.100


     atomic species   valence    mass     pseudopotential
        C              4.00    12.01100     C ( 1.00)

     No symmetry found



   Cartesian axes

     site n.     atom                  positions (alat units)
         1           C   tau(   1) = (   0.0000000   0.0000000   0.0000000  )
         2           C   tau(   2) = (   0.2500000   0.2500000   0.2500000  )

     number of k points=   112

     Number of k-points >= 100: set verbosity='high' to print them.

     Dense  grid:     2629 G-vectors     FFT dimensions: (  20,  20,  20)

     Estimated max dynamical RAM per process >       6.21 MB

     Initial potential from superposition of free atoms

     starting charge       7.9999, renormalised to       8.0000
     Starting wfcs are    8 randomized atomic wfcs

     total cpu time spent up to now is        1.5 secs

     Self-consistent Calculation

     iteration #  1     ecut=    40.00 Ry     beta= 0.70
     CG style diagonalization
     ethr =  1.00E-02,  avg # of iterations =  3.0

     total cpu time spent up to now is        3.2 secs

     total energy              =     -23.03933795 Ry
     estimated scf accuracy    <       0.14057705 Ry

     iteration #  2     ecut=    40.00 Ry     beta= 0.70
     CG style diagonalization
     ethr =  1.76E-03,  avg # of iterations =  3.6

     total cpu time spent up to now is        5.1 secs

     total energy              =     -23.05568441 Ry
     estimated scf accuracy    <       0.00145560 Ry

     iteration #  3     ecut=    40.00 Ry     beta= 0.70
     CG style diagonalization
     ethr =  1.82E-05,  avg # of iterations =  4.0

     total cpu time spent up to now is        7.2 secs

     total energy              =     -23.05616231 Ry
     estimated scf accuracy    <       0.00004827 Ry

     iteration #  4     ecut=    40.00 Ry     beta= 0.70
     CG style diagonalization
     ethr =  6.03E-07,  avg # of iterations =  4.0

     total cpu time spent up to now is        9.3 secs

     total energy              =     -23.05617922 Ry
     estimated scf accuracy    <       0.00000213 Ry

     iteration #  5     ecut=    40.00 Ry     beta= 0.70
     CG style diagonalization
     ethr =  2.66E-08,  avg # of iterations =  4.0

     total cpu time spent up to now is       11.4 secs

     total energy              =     -23.05617998 Ry
     estimated scf accuracy    <       0.00000002 Ry

     iteration #  6     ecut=    40.00 Ry     beta= 0.70
     CG style diagonalization
     ethr =  1.99E-10,  avg # of iterations =  4.6

     total cpu time spent up to now is       13.7 secs

     End of self-consistent calculation

     Number of k-points >= 100: set verbosity='high' to print the bands.

     highest occupied level (ev):    13.6786

!    total energy              =     -23.05618000 Ry
     estimated scf accuracy    <          9.0E-11 Ry

     The total energy is the sum of the following terms:
     one-electron contribution =       8.24593442 Ry
     hartree contribution      =       1.89204565 Ry
     xc contribution           =      -7.38928856 Ry
     ewald contribution        =     -25.80487151 Ry

     convergence has been achieved in   6 iterations

     Forces acting on atoms (cartesian axes, Ry/au):

     atom    1 type  1   force =    -0.00620812   -0.00163330    0.00447369
     atom    2 type  1   force =     0.00620812    0.00163330   -0.00447369

     Total force =     0.011065     Total SCF correction =     0.000002


     Computing stress (Cartesian axis) and pressure

          total   stress  (Ry/bohr**3)                   (kbar)     P=      -12.21
  -0.00017957  -0.00013100  -0.00005757          -26.42      -19.27       -8.47
  -0.00013100  -0.00017944   0.00007626          -19.27      -26.40       11.22
  -0.00005757   0.00007626   0.00010991           -8.47       11.22       16.17


     BFGS Geometry Optimization
     Energy error            =      0.0E+00 Ry
     Gradient error          =      6.2E-03 Ry/Bohr

     number of scf cycles    =   1
     number of bfgs steps    =   0

     energy             new  =     -23.0561800007 Ry

     new trust radius        =       0.0078244672 bohr
     new conv_thr            =       0.0000000100 Ry


ATOMIC_POSITIONS (alat)
C            -0.0009293591       -0.0002445053        0.0006697139
C             0.2509293591        0.2502445053        0.2493302861



     Writing config-only to output data dir ./Diamond.save/
     NEW-OLD atomic charge density approx. for the potential

     total cpu time spent up to now is       14.3 secs

     Self-consistent Calculation

     iteration #  1     ecut=    40.00 Ry     beta= 0.70
     CG style diagonalization
     c_bands:  2 eigenvalues not converged
     c_bands:  1 eigenvalues not converged
     c_bands:  1 eigenvalues not converged
     c_bands:  1 eigenvalues not converged
     c_bands:  1 eigenvalues not converged
     c_bands:  1 eigenvalues not converged
     c_bands:  1 eigenvalues not converged
     c_bands:  1 eigenvalues not converged
     c_bands:  1 eigenvalues not converged
     c_bands:  1 eigenvalues not converged
     c_bands:  1 eigenvalues not converged
     c_bands:  1 eigenvalues not converged
     c_bands:  1 eigenvalues not converged
     c_bands:  1 eigenvalues not converged
     ethr =  1.00E-06,  avg # of iterations =  6.5

     total cpu time spent up to now is       17.5 secs

     total energy              =     -23.05619964 Ry
     estimated scf accuracy    <       0.00001188 Ry

     iteration #  2     ecut=    40.00 Ry     beta= 0.70
     CG style diagonalization
     ethr =  1.48E-07,  avg # of iterations =  3.7

     total cpu time spent up to now is       19.5 secs

     total energy              =     -23.05620548 Ry
     estimated scf accuracy    <       0.00000024 Ry

     iteration #  3     ecut=    40.00 Ry     beta= 0.70
     CG style diagonalization
     ethr =  2.95E-09,  avg # of iterations =  3.9

     total cpu time spent up to now is       21.5 secs

     total energy              =     -23.05620555 Ry
     estimated scf accuracy    <       0.00000001 Ry

     iteration #  4     ecut=    40.00 Ry     beta= 0.70
     CG style diagonalization
     ethr =  1.32E-10,  avg # of iterations =  3.9

     total cpu time spent up to now is       23.5 secs

     End of self-consistent calculation

     Number of k-points >= 100: set verbosity='high' to print the bands.

     highest occupied level (ev):    13.6486

!    total energy              =     -23.05620555 Ry
     estimated scf accuracy    <          3.7E-11 Ry

     The total energy is the sum of the following terms:
     one-electron contribution =       8.24637745 Ry
     hartree contribution      =       1.89187502 Ry
     xc contribution           =      -7.38925140 Ry
     ewald contribution        =     -25.80520662 Ry

     convergence has been achieved in   4 iterations

     Forces acting on atoms (cartesian axes, Ry/au):

     atom    1 type  1   force =     0.00365605    0.00084295   -0.00267464
     atom    2 type  1   force =    -0.00365605   -0.00084295    0.00267464

     Total force =     0.006516     Total SCF correction =     0.000005


     Computing stress (Cartesian axis) and pressure

          total   stress  (Ry/bohr**3)                   (kbar)     P=      -12.42
  -0.00018093  -0.00011188  -0.00006191          -26.62      -16.46       -9.11
  -0.00011188  -0.00018072   0.00005072          -16.46      -26.58        7.46
  -0.00006191   0.00005072   0.00010836           -9.11        7.46       15.94

     Energy error            =      2.6E-05 Ry
     Gradient error          =      3.7E-03 Ry/Bohr

     number of scf cycles    =   2
     number of bfgs steps    =   1

     energy             old  =     -23.0561800007 Ry
     energy             new  =     -23.0562055513 Ry

     CASE: energy            _new < energy            _old

     new trust radius        =       0.0028995644 bohr
     new conv_thr            =            1.0E-10 Ry


ATOMIC_POSITIONS (alat)
C            -0.0005849430       -0.0001650990        0.0004177498
C             0.2505849430        0.2501650990        0.2495822502



     Writing config-only to output data dir ./Diamond.save/
     NEW-OLD atomic charge density approx. for the potential

     total cpu time spent up to now is       24.1 secs

     Self-consistent Calculation

     iteration #  1     ecut=    40.00 Ry     beta= 0.70
     CG style diagonalization
     c_bands:  1 eigenvalues not converged
     c_bands:  1 eigenvalues not converged
     c_bands:  1 eigenvalues not converged
     ethr =  1.00E-06,  avg # of iterations =  4.5

     Threshold (ethr) on eigenvalues was too large:
     Diagonalizing with lowered threshold

     CG style diagonalization
     c_bands:  1 eigenvalues not converged
     c_bands:  1 eigenvalues not converged
     c_bands:  1 eigenvalues not converged
     c_bands:  1 eigenvalues not converged
     c_bands:  1 eigenvalues not converged
     c_bands:  1 eigenvalues not converged
     c_bands:  1 eigenvalues not converged
     c_bands:  1 eigenvalues not converged
     c_bands:  1 eigenvalues not converged
     ethr =  2.45E-08,  avg # of iterations =  5.0

     total cpu time spent up to now is       29.0 secs

     total energy              =     -23.05621830 Ry
     estimated scf accuracy    <       0.00000163 Ry

     iteration #  2     ecut=    40.00 Ry     beta= 0.70
     CG style diagonalization
     ethr =  2.04E-08,  avg # of iterations =  3.4

     total cpu time spent up to now is       30.9 secs

     total energy              =     -23.05621855 Ry
     estimated scf accuracy    <       0.00000003 Ry

     iteration #  3     ecut=    40.00 Ry     beta= 0.70
     CG style diagonalization
     ethr =  4.11E-10,  avg # of iterations =  3.9

     total cpu time spent up to now is       32.9 secs

     total energy              =     -23.05621856 Ry
     estimated scf accuracy    <          1.5E-09 Ry

     iteration #  4     ecut=    40.00 Ry     beta= 0.70
     CG style diagonalization
     ethr =  1.90E-11,  avg # of iterations =  3.9

     total cpu time spent up to now is       35.0 secs

     End of self-consistent calculation

     Number of k-points >= 100: set verbosity='high' to print the bands.

     highest occupied level (ev):    13.6288

!    total energy              =     -23.05621856 Ry
     estimated scf accuracy    <          4.8E-11 Ry

     The total energy is the sum of the following terms:
     one-electron contribution =       8.24624646 Ry
     hartree contribution      =       1.89192921 Ry
     xc contribution           =      -7.38926311 Ry
     ewald contribution        =     -25.80513112 Ry

     convergence has been achieved in   4 iterations

     Forces acting on atoms (cartesian axes, Ry/au):

     atom    1 type  1   force =    -0.00000625    0.00000957    0.00002546
     atom    2 type  1   force =     0.00000625   -0.00000957   -0.00002546

     Total force =     0.000039     Total SCF correction =     0.000009
     SCF correction compared to forces is large: reduce conv_thr to get better values


     Computing stress (Cartesian axis) and pressure

          total   stress  (Ry/bohr**3)                   (kbar)     P=      -12.39
  -0.00018064  -0.00011910  -0.00006029          -26.57      -17.52       -8.87
  -0.00011910  -0.00018064   0.00006014          -17.52      -26.57        8.85
  -0.00006029   0.00006014   0.00010864           -8.87        8.85       15.98

     Energy error            =      1.3E-05 Ry
     Gradient error          =      2.5E-05 Ry/Bohr

     bfgs converged in   3 scf cycles and   2 bfgs steps
     (criteria: energy <  1.0E-04 Ry, force <  1.0E-03 Ry/Bohr)

     End of BFGS Geometry Optimization

     Final energy             =     -23.0562185642 Ry

     File ./Diamond.bfgs deleted, as requested
Begin final coordinates

ATOMIC_POSITIONS (alat)
C            -0.0005849430       -0.0001650990        0.0004177498
C             0.2505849430        0.2501650990        0.2495822502
End final coordinates



     Writing all to output data dir ./Diamond.save/
 
     init_run     :      1.04s CPU      1.11s WALL (       1 calls)
     electrons    :     26.86s CPU     32.32s WALL (       3 calls)
     update_pot   :      0.05s CPU      0.05s WALL (       2 calls)
     forces       :      0.22s CPU      0.23s WALL (       3 calls)
     stress       :      1.10s CPU      1.12s WALL (       3 calls)

     Called by init_run:
     wfcinit      :      0.72s CPU      0.77s WALL (       1 calls)
     potinit      :      0.01s CPU      0.01s WALL (       1 calls)
     hinit0       :      0.29s CPU      0.31s WALL (       1 calls)

     Called by electrons:
     c_bands      :     24.09s CPU     29.34s WALL (      15 calls)
     sum_band     :      2.66s CPU      2.81s WALL (      15 calls)
     v_of_rho     :      0.03s CPU      0.04s WALL (      17 calls)
     newd         :      0.07s CPU      0.07s WALL (      17 calls)
     mix_rho      :      0.01s CPU      0.01s WALL (      15 calls)

     Called by c_bands:
     init_us_2    :      0.82s CPU      0.98s WALL (    4144 calls)
     init_us_2:cp :      0.76s CPU      0.92s WALL (    4144 calls)
     ccgdiagg     :     19.26s CPU     21.55s WALL (    1680 calls)
     wfcrot       :      4.51s CPU      4.83s WALL (    1344 calls)

     Called by *cgdiagg:
     h_psi        :     19.53s CPU     21.56s WALL (   24048 calls)
     s_psi        :      0.88s CPU      1.03s WALL (   46752 calls)

     Called by h_psi:
     h_psi:calbec :      0.80s CPU      0.88s WALL (   24048 calls)
     vloc_psi     :     17.29s CPU     19.05s WALL (   24048 calls)
     add_vuspsi   :      0.50s CPU      0.57s WALL (   24048 calls)
     hs_1psi      :     16.98s CPU     18.91s WALL (   22704 calls)
     s_1psi       :      1.51s CPU      1.70s WALL (   22704 calls)

     General routines
     calbec       :      0.99s CPU      1.14s WALL (   50112 calls)
     fft          :      0.03s CPU      0.05s WALL (      95 calls)
     ffts         :      0.00s CPU      0.01s WALL (      15 calls)
     fftw         :     17.60s CPU     19.32s WALL (   63776 calls)
 
     Parallel routines
 
     PWSCF        :     29.77s CPU     36.20s WALL

 
   This run was terminated on:  20:54:20  14Mar2022            

=------------------------------------------------------------------------------=
   JOB DONE.
=------------------------------------------------------------------------------=
