
     Program PWSCF v.7.0 starts on 14Mar2022 at 23:24:51 

     This program is part of the open-source Quantum ESPRESSO suite
     for quantum simulation of materials; please cite
         "P. Giannozzi et al., J. Phys.:Condens. Matter 21 395502 (2009);
         "P. Giannozzi et al., J. Phys.:Condens. Matter 29 465901 (2017);
         "P. Giannozzi et al., J. Chem. Phys. 152 154105 (2020);
          URL http://www.quantum-espresso.org", 
     in publications or presentations arising from this work. More details at
     http://www.quantum-espresso.org/quote

     Parallel version (MPI), running on     1 processors

     MPI processes distributed on     1 nodes
     90866 MiB available memory on the printing compute node when the environment starts
 
     Waiting for input...
     Reading input from standard input
Warning: card &CELL ignored
Warning: card  CELL_DYNAMICS = 'BFGS', ignored
Warning: card  PRESS=0.1D0, ignored
Warning: card / ignored
     Message from routine read_cards :
     DEPRECATED: no units specified in ATOMIC_POSITIONS card
     Message from routine read_cards :
     ATOMIC_POSITIONS: units set to alat

     Current dimensions of program PWSCF are:
     Max number of different atomic species (ntypx) = 10
     Max number of k-points (npk) =  40000
     Max angular momentum in pseudopotentials (lmaxx) =  4
     Message from routine setup:
     using ibrav=0 with symmetry is DISCOURAGED, use correct ibrav instead

     Subspace diagonalization in iterative solution of the eigenvalue problem:
     a serial algorithm will be used

 
     G-vector sticks info
     --------------------
     sticks:   dense  smooth     PW     G-vecs:    dense   smooth      PW
     Sum         253     253     85                 2613     2613     531
 
     Using Slab Decomposition
 


     bravais-lattice index     =            0
     lattice parameter (alat)  =       6.6720  a.u.
     unit-cell volume          =      74.2511 (a.u.)^3
     number of atoms/cell      =            2
     number of atomic types    =            1
     number of electrons       =         8.00
     number of Kohn-Sham states=            4
     kinetic-energy cutoff     =      40.0000  Ry
     charge density cutoff     =     160.0000  Ry
     scf convergence threshold =      1.0E-08
     mixing beta               =       0.7000
     number of iterations used =            8  plain     mixing
     energy convergence thresh.=      1.0E-04
     force convergence thresh. =      1.0E-03
     Exchange-correlation= SLA  PZ   NOGX NOGC
                           (   1   1   0   0   0   0   0)
     nstep                     =           50


     celldm(1)=   6.672000  celldm(2)=   0.000000  celldm(3)=   0.000000
     celldm(4)=   0.000000  celldm(5)=   0.000000  celldm(6)=   0.000000

     crystal axes: (cart. coord. in units of alat)
               a(1) = (  -0.499000   0.000000   0.502000 )  
               a(2) = (   0.000000   0.499000   0.502000 )  
               a(3) = (  -0.499000   0.499000   0.000000 )  

     reciprocal axes: (cart. coord. in units 2 pi/alat)
               b(1) = ( -1.002004 -1.002004  0.996016 )  
               b(2) = (  1.002004  1.002004  0.996016 )  
               b(3) = ( -1.002004  1.002004 -0.996016 )  


     PseudoPot. # 1 for C  read from file:
     ./C_LDA.UPF
     MD5 check sum: 407c1fe918d93b14b177d5600f28733c
     Pseudo is Ultrasoft + core correction, Zval =  4.0
     Generated by new atomic code, or converted to UPF format
     Using radial grid of  721 points,  4 beta functions with: 
                l(1) =   0
                l(2) =   0
                l(3) =   1
                l(4) =   1
     Q(r) pseudized with  8 coefficients,  rinner =    1.100   1.100   1.100


     atomic species   valence    mass     pseudopotential
        C              4.00    12.01100     C ( 1.00)

      2 Sym. Ops. (no inversion) found



   Cartesian axes

     site n.     atom                  positions (alat units)
         1           C   tau(   1) = (   0.0000000   0.0000000   0.0000000  )
         2           C   tau(   2) = (   0.2500000   0.2500000   0.2500000  )

     number of k points=    68
                       cart. coord. in units 2pi/alat
        k(    1) = (   0.0000000   0.0000000   0.0000000), wk =   0.0092593
        k(    2) = (  -0.1670007   0.1670007  -0.1660027), wk =   0.0370370
        k(    3) = (  -0.3340013   0.3340013  -0.3320053), wk =   0.0370370
        k(    4) = (   0.5010020  -0.5010020   0.4980080), wk =   0.0185185
        k(    5) = (   0.0000000   0.3340013  -0.0000000), wk =   0.0370370
        k(    6) = (  -0.1670007   0.5010020  -0.1660027), wk =   0.0370370
        k(    7) = (   0.6680027  -0.3340013   0.6640106), wk =   0.0370370
        k(    8) = (   0.5010020  -0.1670007   0.4980080), wk =   0.0370370
        k(    9) = (   0.3340013  -0.0000000   0.3320053), wk =   0.0370370
        k(   10) = (   0.0000000   0.6680027  -0.0000000), wk =   0.0370370
        k(   11) = (   0.8350033  -0.1670007   0.8300133), wk =   0.0370370
        k(   12) = (   0.6680027  -0.0000000   0.6640106), wk =   0.0370370
        k(   13) = (   0.0000000  -1.0020040   0.0000000), wk =   0.0185185
        k(   14) = (   0.0000000   0.0000000   0.3320053), wk =   0.0185185
        k(   15) = (  -0.3340013   0.3340013  -0.0000000), wk =   0.0185185
        k(   16) = (   0.5010020  -0.5010020   0.8300133), wk =   0.0370370
        k(   17) = (   0.3340013  -0.3340013   0.6640106), wk =   0.0370370
        k(   18) = (   0.1670007  -0.1670007   0.4980080), wk =   0.0370370
        k(   19) = (   0.6680027  -0.3340013   0.9960159), wk =   0.0370370
        k(   20) = (   0.5010020  -0.1670007   0.8300133), wk =   0.0370370
        k(   21) = (   0.3340013  -0.0000000   0.6640106), wk =   0.0370370
        k(   22) = (  -1.0020040  -0.3340013  -0.6640106), wk =   0.0370370
        k(   23) = (  -0.3340013  -1.0020040   0.0000000), wk =   0.0370370
        k(   24) = (  -0.8350033  -0.1670007  -0.4980080), wk =   0.0185185
        k(   25) = (   0.0000000  -1.0020040   0.3320053), wk =   0.0370370
        k(   26) = (   0.0000000   0.0000000   0.6640106), wk =   0.0185185
        k(   27) = (   0.3340013  -0.3340013   0.9960159), wk =   0.0185185
        k(   28) = (   0.1670007  -0.1670007   0.8300133), wk =   0.0370370
        k(   29) = (  -0.6680027  -1.0020040   0.0000000), wk =   0.0370370
        k(   30) = (   0.0000000   0.0000000  -0.9960159), wk =   0.0092593
        k(   31) = (   0.1670007   0.1670007   0.1660027), wk =   0.0185185
        k(   32) = (  -0.1670007  -0.1670007   0.1660027), wk =   0.0185185
        k(   33) = (   0.3340013   0.3340013   0.3320053), wk =   0.0185185
        k(   34) = (  -0.3340013  -0.3340013   0.3320053), wk =   0.0185185
        k(   35) = (  -0.5010020  -0.5010020  -0.4980080), wk =   0.0092593
        k(   36) = (   0.5010020   0.5010020  -0.4980080), wk =   0.0092593
        k(   37) = (   0.1670007   0.5010020   0.1660027), wk =   0.0370370
        k(   38) = (  -0.1670007  -0.5010020   0.1660027), wk =   0.0370370
        k(   39) = (   0.5010020  -0.1670007   0.1660027), wk =   0.0370370
        k(   40) = (  -0.6680027  -0.3340013  -0.6640106), wk =   0.0370370
        k(   41) = (   0.6680027   0.3340013  -0.6640106), wk =   0.0370370
        k(   42) = (  -0.3340013   0.6680027  -0.6640106), wk =   0.0370370
        k(   43) = (  -0.5010020  -0.1670007  -0.4980080), wk =   0.0370370
        k(   44) = (   0.5010020   0.1670007  -0.4980080), wk =   0.0370370
        k(   45) = (  -0.1670007   0.5010020  -0.4980080), wk =   0.0370370
        k(   46) = (   0.3340013   0.0000000  -0.3320053), wk =   0.0370370
        k(   47) = (  -0.8350033  -0.1670007  -0.8300133), wk =   0.0370370
        k(   48) = (   0.8350033   0.1670007  -0.8300133), wk =   0.0370370
        k(   49) = (  -0.1670007   0.8350033  -0.8300133), wk =   0.0370370
        k(   50) = (   0.6680027  -0.0000000  -0.6640106), wk =   0.0370370
        k(   51) = (   0.3340013   0.3340013   0.0000000), wk =   0.0185185
        k(   52) = (  -0.5010020  -0.5010020  -0.8300133), wk =   0.0185185
        k(   53) = (   0.5010020   0.5010020  -0.8300133), wk =   0.0185185
        k(   54) = (  -0.3340013  -0.3340013  -0.6640106), wk =   0.0185185
        k(   55) = (   0.3340013   0.3340013  -0.6640106), wk =   0.0185185
        k(   56) = (  -0.1670007  -0.1670007  -0.4980080), wk =   0.0185185
        k(   57) = (   0.1670007   0.1670007  -0.4980080), wk =   0.0185185
        k(   58) = (  -0.6680027  -0.3340013  -0.9960159), wk =   0.0370370
        k(   59) = (  -0.5010020  -0.1670007  -0.8300133), wk =   0.0370370
        k(   60) = (   0.5010020   0.1670007  -0.8300133), wk =   0.0370370
        k(   61) = (  -0.1670007   0.5010020  -0.8300133), wk =   0.0370370
        k(   62) = (   0.3340013   0.0000000  -0.6640106), wk =   0.0370370
        k(   63) = (   1.0020040  -0.3340013   0.6640106), wk =   0.0370370
        k(   64) = (   0.8350033  -0.1670007   0.4980080), wk =   0.0370370
        k(   65) = (  -0.1670007  -0.8350033   0.4980080), wk =   0.0185185
        k(   66) = (  -0.3340013  -0.3340013  -0.9960159), wk =   0.0185185
        k(   67) = (  -0.1670007  -0.1670007  -0.8300133), wk =   0.0185185
        k(   68) = (   0.1670007   0.1670007  -0.8300133), wk =   0.0185185

     Dense  grid:     2613 G-vectors     FFT dimensions: (  20,  20,  20)

     Estimated max dynamical RAM per process >       5.33 MB

     Initial potential from superposition of free atoms

     starting charge       7.9999, renormalised to       8.0000
     Starting wfcs are    8 randomized atomic wfcs

     total cpu time spent up to now is        1.2 secs

     Self-consistent Calculation

     iteration #  1     ecut=    40.00 Ry     beta= 0.70
     CG style diagonalization
     ethr =  1.00E-02,  avg # of iterations =  3.0

     total cpu time spent up to now is        2.3 secs

     total energy              =     -23.03923340 Ry
     estimated scf accuracy    <       0.14162043 Ry

     iteration #  2     ecut=    40.00 Ry     beta= 0.70
     CG style diagonalization
     ethr =  1.77E-03,  avg # of iterations =  3.6

     total cpu time spent up to now is        3.4 secs

     total energy              =     -23.05567034 Ry
     estimated scf accuracy    <       0.00146924 Ry

     iteration #  3     ecut=    40.00 Ry     beta= 0.70
     CG style diagonalization
     ethr =  1.84E-05,  avg # of iterations =  4.0

     total cpu time spent up to now is        4.7 secs

     total energy              =     -23.05616213 Ry
     estimated scf accuracy    <       0.00004687 Ry

     iteration #  4     ecut=    40.00 Ry     beta= 0.70
     CG style diagonalization
     ethr =  5.86E-07,  avg # of iterations =  4.0

     total cpu time spent up to now is        6.0 secs

     total energy              =     -23.05617915 Ry
     estimated scf accuracy    <       0.00000208 Ry

     iteration #  5     ecut=    40.00 Ry     beta= 0.70
     CG style diagonalization
     ethr =  2.60E-08,  avg # of iterations =  4.0

     total cpu time spent up to now is        7.3 secs

     total energy              =     -23.05617987 Ry
     estimated scf accuracy    <       0.00000001 Ry

     iteration #  6     ecut=    40.00 Ry     beta= 0.70
     CG style diagonalization
     ethr =  1.72E-10,  avg # of iterations =  4.7

     total cpu time spent up to now is        8.7 secs

     End of self-consistent calculation

          k = 0.0000 0.0000 0.0000 (   331 PWs)   bands (ev):

    -8.0718  13.5625  13.6492  13.7355

          k =-0.1670 0.1670-0.1660 (   320 PWs)   bands (ev):

    -7.2903   9.8614  12.5580  12.6129

          k =-0.3340 0.3340-0.3320 (   309 PWs)   bands (ev):

    -4.9903   4.1527  11.2321  11.2968

          k = 0.5010-0.5010 0.4980 (   332 PWs)   bands (ev):

    -2.0634  -0.0353  10.7388  10.8112

          k = 0.0000 0.3340-0.0000 (   311 PWs)   bands (ev):

    -7.0264  10.9468  11.0031  11.5131

          k =-0.1670 0.5010-0.1660 (   319 PWs)   bands (ev):

    -5.2287   6.3485   9.6674  10.2294

          k = 0.6680-0.3340 0.6640 (   319 PWs)   bands (ev):

    -2.1431   1.4229   8.6287   9.5336

          k = 0.5010-0.1670 0.4980 (   316 PWs)   bands (ev):

    -3.2801   2.9807   7.9063  10.5668

          k = 0.3340-0.0000 0.3320 (   317 PWs)   bands (ev):

    -6.0060   7.9473   8.7315  12.1948

          k = 0.0000 0.6680-0.0000 (   323 PWs)   bands (ev):

    -3.9550   6.5651   8.1439   8.1709

          k = 0.8350-0.1670 0.8300 (   318 PWs)   bands (ev):

    -1.2986   3.4584   5.7633   7.8115

          k = 0.6680-0.0000 0.6640 (   323 PWs)   bands (ev):

    -0.4390   2.6969   3.9988   8.7885

          k = 0.0000-1.0020 0.0000 (   314 PWs)   bands (ev):

     0.8511   0.8636   7.1326   7.1498

          k = 0.0000 0.0000 0.3320 (   307 PWs)   bands (ev):

    -7.0391  11.0018  11.0618  11.4068

          k =-0.3340 0.3340-0.0000 (   317 PWs)   bands (ev):

    -5.9934   7.9408   8.6607  12.2511

          k = 0.5010-0.5010 0.8300 (   316 PWs)   bands (ev):

    -3.2577   2.9410   7.8343  10.6385

          k = 0.3340-0.3340 0.6640 (   317 PWs)   bands (ev):

    -2.1728   1.4483   8.5405   9.6042

          k = 0.1670-0.1670 0.4980 (   320 PWs)   bands (ev):

    -5.2534   6.3726   9.7237  10.1595

          k = 0.6680-0.3340 0.9960 (   318 PWs)   bands (ev):

    -2.9873   4.9530   6.0906   8.7242

          k = 0.5010-0.1670 0.8300 (   317 PWs)   bands (ev):

    -0.2761   1.7501   5.7022   7.4991

          k = 0.3340-0.0000 0.6640 (   318 PWs)   bands (ev):

    -3.0333   4.9721   6.1819   8.6525

          k =-1.0020-0.3340-0.6640 (   318 PWs)   bands (ev):

    -2.9981   4.9782   6.1451   8.7002

          k =-0.3340-1.0020 0.0000 (   312 PWs)   bands (ev):

     1.4358   1.4578   5.5402   5.5641

          k =-0.8350-0.1670-0.4980 (   318 PWs)   bands (ev):

    -0.2562   1.7458   5.7524   7.4943

          k = 0.0000-1.0020 0.3320 (   318 PWs)   bands (ev):

     1.4394   1.4566   5.5685   5.5883

          k = 0.0000 0.0000 0.6640 (   323 PWs)   bands (ev):

    -4.0035   6.4417   8.2182   8.2570

          k = 0.3340-0.3340 0.9960 (   323 PWs)   bands (ev):

    -0.4170   2.6279   3.9353   8.8711

          k = 0.1670-0.1670 0.8300 (   318 PWs)   bands (ev):

    -1.3650   3.4013   5.7843   7.8907

          k =-0.6680-1.0020 0.0000 (   308 PWs)   bands (ev):

     1.3624   1.3941   5.6004   5.6378

          k = 0.0000 0.0000-0.9960 (   326 PWs)   bands (ev):

     0.7480   0.7732   7.2143   7.2491

          k = 0.1670 0.1670 0.1660 (   320 PWs)   bands (ev):

    -7.2904   9.8451  12.5118  12.6804

          k =-0.1670-0.1670 0.1660 (   320 PWs)   bands (ev):

    -7.2905   9.8103  12.5656  12.6710

          k = 0.3340 0.3340 0.3320 (   309 PWs)   bands (ev):

    -4.9903   4.1433  11.1765  11.3638

          k =-0.3340-0.3340 0.3320 (   309 PWs)   bands (ev):

    -4.9904   4.1242  11.2175  11.3460

          k =-0.5010-0.5010-0.4980 (   332 PWs)   bands (ev):

    -2.0575  -0.0489  10.6801  10.8787

          k = 0.5010 0.5010-0.4980 (   332 PWs)   bands (ev):

    -2.0458  -0.0760  10.7180  10.8580

          k = 0.1670 0.5010 0.1660 (   319 PWs)   bands (ev):

    -5.2288   6.3342   9.6583  10.2574

          k =-0.1670-0.5010 0.1660 (   319 PWs)   bands (ev):

    -5.2289   6.3112   9.6824  10.2600

          k = 0.5010-0.1670 0.1660 (   319 PWs)   bands (ev):

    -5.2286   6.3541   9.6953  10.1905

          k =-0.6680-0.3340-0.6640 (   319 PWs)   bands (ev):

    -2.1405   1.4113   8.6401   9.5325

          k = 0.6680 0.3340-0.6640 (   319 PWs)   bands (ev):

    -2.1359   1.3901   8.6422   9.5505

          k =-0.3340 0.6680-0.6640 (   319 PWs)   bands (ev):

    -2.1433   1.4246   8.5965   9.5653

          k =-0.5010-0.1670-0.4980 (   316 PWs)   bands (ev):

    -3.2796   2.9717   7.9176  10.5632

          k = 0.5010 0.1670-0.4980 (   316 PWs)   bands (ev):

    -3.2785   2.9514   7.9183  10.5893

          k =-0.1670 0.5010-0.4980 (   316 PWs)   bands (ev):

    -3.2801   2.9787   7.8804  10.6033

          k = 0.3340 0.0000-0.3320 (   317 PWs)   bands (ev):

    -6.0062   7.9163   8.7355  12.2367

          k =-0.8350-0.1670-0.8300 (   318 PWs)   bands (ev):

    -1.2974   3.4450   5.7774   7.8106

          k = 0.8350 0.1670-0.8300 (   318 PWs)   bands (ev):

    -1.2956   3.4310   5.7745   7.8284

          k =-0.1670 0.8350-0.8300 (   318 PWs)   bands (ev):

    -1.2990   3.4709   5.7315   7.8318

          k = 0.6680-0.0000-0.6640 (   323 PWs)   bands (ev):

    -0.4338   2.6796   3.9931   8.8113

          k = 0.3340 0.3340 0.0000 (   317 PWs)   bands (ev):

    -5.9938   7.8794   8.6677  12.3361

          k =-0.5010-0.5010-0.8300 (   316 PWs)   bands (ev):

    -3.2569   2.9279   7.7959  10.7070

          k = 0.5010 0.5010-0.8300 (   316 PWs)   bands (ev):

    -3.2558   2.9097   7.8214  10.6973

          k =-0.3340-0.3340-0.6640 (   317 PWs)   bands (ev):

    -2.1708   1.4404   8.4931   9.6613

          k = 0.3340 0.3340-0.6640 (   317 PWs)   bands (ev):

    -2.1661   1.4175   8.5244   9.6504

          k =-0.1670-0.1670-0.4980 (   320 PWs)   bands (ev):

    -5.2533   6.3705   9.7777  10.1019

          k = 0.1670 0.1670-0.4980 (   320 PWs)   bands (ev):

    -5.2535   6.3413   9.7703  10.1473

          k =-0.6680-0.3340-0.9960 (   318 PWs)   bands (ev):

    -2.9863   4.9046   6.0932   8.7808

          k =-0.5010-0.1670-0.8300 (   317 PWs)   bands (ev):

    -0.2686   1.7361   5.6659   7.5469

          k = 0.5010 0.1670-0.8300 (   317 PWs)   bands (ev):

    -0.2555   1.7029   5.6859   7.5489

          k =-0.1670 0.5010-0.8300 (   317 PWs)   bands (ev):

    -0.2755   1.7517   5.6734   7.5283

          k = 0.3340 0.0000-0.6640 (   318 PWs)   bands (ev):

    -3.0329   4.9479   6.1835   8.6802

          k = 1.0020-0.3340 0.6640 (   318 PWs)   bands (ev):

    -2.9977   4.9540   6.1467   8.7283

          k = 0.8350-0.1670 0.4980 (   318 PWs)   bands (ev):

    -0.2619   1.7649   5.6983   7.5379

          k =-0.1670-0.8350 0.4980 (   318 PWs)   bands (ev):

    -0.2425   1.7142   5.7419   7.5272

          k =-0.3340-0.3340-0.9960 (   323 PWs)   bands (ev):

    -0.4056   2.5934   3.9230   8.9174

          k =-0.1670-0.1670-0.8300 (   318 PWs)   bands (ev):

    -1.3647   3.4128   5.7351   7.9305

          k = 0.1670 0.1670-0.8300 (   318 PWs)   bands (ev):

    -1.3626   3.3877   5.7624   7.9281

     highest occupied level (ev):    13.7355

!    total energy              =     -23.05617989 Ry
     estimated scf accuracy    <          8.7E-10 Ry

     The total energy is the sum of the following terms:
     one-electron contribution =       8.28700966 Ry
     hartree contribution      =       1.88832256 Ry
     xc contribution           =      -7.39536617 Ry
     ewald contribution        =     -25.83614593 Ry

     convergence has been achieved in   6 iterations

     Forces acting on atoms (cartesian axes, Ry/au):

     atom    1 type  1   force =     0.00271157    0.00271157   -0.00534587
     atom    2 type  1   force =    -0.00271157   -0.00271157    0.00534587

     Total force =     0.009304     Total SCF correction =     0.000001


     Computing stress (Cartesian axis) and pressure

          total   stress  (Ry/bohr**3)                   (kbar)     P=        4.20
   0.00015895   0.00001449  -0.00000769           23.38        2.13       -1.13
   0.00001449   0.00015895  -0.00000769            2.13       23.38       -1.13
  -0.00000769  -0.00000769  -0.00023220           -1.13       -1.13      -34.16


     BFGS Geometry Optimization
     Energy error            =      0.0E+00 Ry
     Gradient error          =      5.3E-03 Ry/Bohr

     number of scf cycles    =   1
     number of bfgs steps    =   0

     energy             new  =     -23.0561798886 Ry

     new trust radius        =       0.0065790232 bohr
     new conv_thr            =       0.0000000100 Ry


ATOMIC_POSITIONS (alat)
C             0.0004064099        0.0004064099       -0.0008012399
C             0.2495935901        0.2495935901        0.2508012399



     Writing config-only to output data dir ./Diamond.save/
     NEW-OLD atomic charge density approx. for the potential

     total cpu time spent up to now is        9.1 secs

     Self-consistent Calculation

     iteration #  1     ecut=    40.00 Ry     beta= 0.70
     CG style diagonalization
     c_bands:  1 eigenvalues not converged
     c_bands:  1 eigenvalues not converged
     c_bands:  1 eigenvalues not converged
     ethr =  1.00E-06,  avg # of iterations =  5.5

     total cpu time spent up to now is       10.8 secs

     total energy              =     -23.05619406 Ry
     estimated scf accuracy    <       0.00000873 Ry

     iteration #  2     ecut=    40.00 Ry     beta= 0.70
     CG style diagonalization
     ethr =  1.09E-07,  avg # of iterations =  3.7

     total cpu time spent up to now is       12.0 secs

     total energy              =     -23.05619673 Ry
     estimated scf accuracy    <       0.00000016 Ry

     iteration #  3     ecut=    40.00 Ry     beta= 0.70
     CG style diagonalization
     ethr =  2.00E-09,  avg # of iterations =  3.9

     total cpu time spent up to now is       13.3 secs

     End of self-consistent calculation

          k = 0.0000 0.0000 0.0000 (   331 PWs)   bands (ev):

    -8.0718  13.5826  13.6463  13.7180

          k =-0.1670 0.1670-0.1660 (   320 PWs)   bands (ev):

    -7.2904   9.8345  12.5442  12.6613

          k =-0.3340 0.3340-0.3320 (   309 PWs)   bands (ev):

    -4.9904   4.1375  11.2044  11.3428

          k = 0.5010-0.5010 0.4980 (   332 PWs)   bands (ev):

    -2.0540  -0.0571  10.7072  10.8566

          k = 0.0000 0.3340-0.0000 (   311 PWs)   bands (ev):

    -7.0265  10.9507  11.0016  11.5105

          k =-0.1670 0.5010-0.1660 (   319 PWs)   bands (ev):

    -5.2288   6.3302   9.6809  10.2371

          k = 0.6680-0.3340 0.6640 (   319 PWs)   bands (ev):

    -2.1393   1.4058   8.6253   9.5530

          k = 0.5010-0.1670 0.4980 (   316 PWs)   bands (ev):

    -3.2792   2.9645   7.9049  10.5894

          k = 0.3340-0.0000 0.3320 (   317 PWs)   bands (ev):

    -6.0061   7.9226   8.7343  12.2288

          k = 0.0000 0.6680-0.0000 (   323 PWs)   bands (ev):

    -3.9550   6.5655   8.1456   8.1685

          k = 0.8350-0.1670 0.8300 (   318 PWs)   bands (ev):

    -1.2971   3.4472   5.7602   7.8263

          k = 0.6680-0.0000 0.6640 (   323 PWs)   bands (ev):

    -0.4347   2.6830   3.9939   8.8071

          k = 0.0000-1.0020 0.0000 (   314 PWs)   bands (ev):

     0.8536   0.8612   7.1356   7.1466

          k = 0.0000 0.0000 0.3320 (   307 PWs)   bands (ev):

    -7.0391  11.0154  11.0494  11.4054

          k =-0.3340 0.3340-0.0000 (   317 PWs)   bands (ev):

    -5.9937   7.8918   8.6660  12.3192

          k = 0.5010-0.5010 0.8300 (   316 PWs)   bands (ev):

    -3.2566   2.9232   7.8136  10.6895

          k = 0.3340-0.3340 0.6640 (   317 PWs)   bands (ev):

    -2.1693   1.4328   8.5149   9.6457

          k = 0.1670-0.1670 0.4980 (   320 PWs)   bands (ev):

    -5.2534   6.3592   9.7638  10.1317

          k = 0.6680-0.3340 0.9960 (   318 PWs)   bands (ev):

    -2.9865   4.9143   6.0925   8.7696

          k = 0.5010-0.1670 0.8300 (   317 PWs)   bands (ev):

    -0.2646   1.7262   5.6694   7.5501

          k = 0.3340-0.0000 0.6640 (   318 PWs)   bands (ev):

    -3.0330   4.9526   6.1830   8.6750

          k =-1.0020-0.3340-0.6640 (   318 PWs)   bands (ev):

    -2.9978   4.9588   6.1461   8.7230

          k =-0.3340-1.0020 0.0000 (   312 PWs)   bands (ev):

     1.4402   1.4535   5.5446   5.5595

          k =-0.8350-0.1670-0.4980 (   318 PWs)   bands (ev):

    -0.2552   1.7481   5.7048   7.5427

          k = 0.0000-1.0020 0.3320 (   318 PWs)   bands (ev):

     1.4428   1.4532   5.5720   5.5846

          k = 0.0000 0.0000 0.6640 (   323 PWs)   bands (ev):

    -4.0035   6.4418   8.2256   8.2493

          k = 0.3340-0.3340 0.9960 (   323 PWs)   bands (ev):

    -0.4079   2.6003   3.9252   8.9082

          k = 0.1670-0.1670 0.8300 (   318 PWs)   bands (ev):

    -1.3639   3.4004   5.7557   7.9217

          k =-0.6680-1.0020 0.0000 (   308 PWs)   bands (ev):

     1.3687   1.3877   5.6077   5.6304

          k = 0.0000 0.0000-0.9960 (   326 PWs)   bands (ev):

     0.7531   0.7681   7.2211   7.2423

          k = 0.1670 0.1670 0.1660 (   320 PWs)   bands (ev):

    -7.2904   9.8439  12.5888  12.6046

          k =-0.1670-0.1670 0.1660 (   320 PWs)   bands (ev):

    -7.2903   9.8658  12.5548  12.6102

          k = 0.3340 0.3340 0.3320 (   309 PWs)   bands (ev):

    -4.9904   4.1430  11.2476  11.2929

          k =-0.3340-0.3340 0.3320 (   309 PWs)   bands (ev):

    -4.9904   4.1549  11.2218  11.3039

          k =-0.5010-0.5010-0.4980 (   332 PWs)   bands (ev):

    -2.0575  -0.0492  10.7509  10.8078

          k = 0.5010 0.5010-0.4980 (   332 PWs)   bands (ev):

    -2.0646  -0.0323  10.7270  10.8206

          k = 0.1670 0.5010 0.1660 (   319 PWs)   bands (ev):

    -5.2288   6.3384   9.6866  10.2205

          k =-0.1670-0.5010 0.1660 (   319 PWs)   bands (ev):

    -5.2287   6.3529   9.6728  10.2173

          k = 0.5010-0.1670 0.1660 (   319 PWs)   bands (ev):

    -5.2288   6.3267   9.6650  10.2598

          k =-0.6680-0.3340-0.6640 (   319 PWs)   bands (ev):

    -2.1408   1.4125   8.6187   9.5536

          k = 0.6680 0.3340-0.6640 (   319 PWs)   bands (ev):

    -2.1437   1.4258   8.6185   9.5411

          k =-0.3340 0.6680-0.6640 (   319 PWs)   bands (ev):

    -2.1391   1.4047   8.6464   9.5321

          k =-0.5010-0.1670-0.4980 (   316 PWs)   bands (ev):

    -3.2796   2.9698   7.8984  10.5915

          k = 0.5010 0.1670-0.4980 (   316 PWs)   bands (ev):

    -3.2802   2.9824   7.8982  10.5746

          k =-0.1670 0.5010-0.4980 (   316 PWs)   bands (ev):

    -3.2793   2.9657   7.9214  10.5661

          k = 0.3340 0.0000-0.3320 (   317 PWs)   bands (ev):

    -6.0060   7.9413   8.7327  12.2021

          k =-0.8350-0.1670-0.8300 (   318 PWs)   bands (ev):

    -1.2978   3.4550   5.7520   7.8268

          k = 0.8350 0.1670-0.8300 (   318 PWs)   bands (ev):

    -1.2989   3.4637   5.7541   7.8153

          k =-0.1670 0.8350-0.8300 (   318 PWs)   bands (ev):

    -1.2968   3.4395   5.7802   7.8132

          k = 0.6680-0.0000-0.6640 (   323 PWs)   bands (ev):

    -0.4380   2.6935   3.9979   8.7924

          k = 0.3340 0.3340 0.0000 (   317 PWs)   bands (ev):

    -5.9935   7.9284   8.6623  12.2677

          k =-0.5010-0.5010-0.8300 (   316 PWs)   bands (ev):

    -3.2571   2.9308   7.8372  10.6480

          k = 0.5010 0.5010-0.8300 (   316 PWs)   bands (ev):

    -3.2578   2.9423   7.8212  10.6539

          k =-0.3340-0.3340-0.6640 (   317 PWs)   bands (ev):

    -2.1705   1.4373   8.5443   9.6106

          k = 0.3340 0.3340-0.6640 (   317 PWs)   bands (ev):

    -2.1734   1.4516   8.5246   9.6174

          k =-0.1670-0.1670-0.4980 (   320 PWs)   bands (ev):

    -5.2535   6.3602   9.7321  10.1659

          k = 0.1670 0.1670-0.4980 (   320 PWs)   bands (ev):

    -5.2534   6.3785   9.7367  10.1373

          k =-0.6680-0.3340-0.9960 (   318 PWs)   bands (ev):

    -2.9871   4.9433   6.0912   8.7353

          k =-0.5010-0.1670-0.8300 (   317 PWs)   bands (ev):

    -0.2691   1.7343   5.6916   7.5211

          k = 0.5010 0.1670-0.8300 (   317 PWs)   bands (ev):

    -0.2771   1.7550   5.6793   7.5196

          k =-0.1670 0.5010-0.8300 (   317 PWs)   bands (ev):

    -0.2650   1.7252   5.6872   7.5320

          k = 0.3340 0.0000-0.6640 (   318 PWs)   bands (ev):

    -3.0333   4.9674   6.1826   8.6573

          k = 1.0020-0.3340 0.6640 (   318 PWs)   bands (ev):

    -2.9980   4.9736   6.1457   8.7051

          k = 0.8350-0.1670 0.4980 (   318 PWs)   bands (ev):

    -0.2519   1.7369   5.7374   7.5161

          k =-0.1670-0.8350 0.4980 (   318 PWs)   bands (ev):

    -0.2636   1.7677   5.7113   7.5220

          k =-0.3340-0.3340-0.9960 (   323 PWs)   bands (ev):

    -0.4147   2.6210   3.9329   8.8802

          k =-0.1670-0.1670-0.8300 (   318 PWs)   bands (ev):

    -1.3641   3.3933   5.7857   7.8975

          k = 0.1670 0.1670-0.8300 (   318 PWs)   bands (ev):

    -1.3653   3.4088   5.7688   7.8989

     highest occupied level (ev):    13.7180

!    total energy              =     -23.05619678 Ry
     estimated scf accuracy    <          7.9E-09 Ry

     The total energy is the sum of the following terms:
     one-electron contribution =       8.28702685 Ry
     hartree contribution      =       1.88833137 Ry
     xc contribution           =      -7.39537046 Ry
     ewald contribution        =     -25.83618454 Ry

     convergence has been achieved in   3 iterations

     Forces acting on atoms (cartesian axes, Ry/au):

     atom    1 type  1   force =    -0.00166016   -0.00166016    0.00319676
     atom    2 type  1   force =     0.00166016    0.00166016   -0.00319676

     Total force =     0.005609     Total SCF correction =     0.000006


     Computing stress (Cartesian axis) and pressure

          total   stress  (Ry/bohr**3)                   (kbar)     P=        4.23
   0.00015907  -0.00000824   0.00000431           23.40       -1.21        0.63
  -0.00000824   0.00015907   0.00000431           -1.21       23.40        0.63
   0.00000431   0.00000431  -0.00023197            0.63        0.63      -34.12

     Energy error            =      1.7E-05 Ry
     Gradient error          =      3.2E-03 Ry/Bohr

     number of scf cycles    =   2
     number of bfgs steps    =   1

     energy             old  =     -23.0561798886 Ry
     energy             new  =     -23.0561967839 Ry

     CASE: energy            _new < energy            _old

     new trust radius        =       0.0024744402 bohr
     new conv_thr            =            1.0E-10 Ry


ATOMIC_POSITIONS (alat)
C             0.0002511761        0.0002511761       -0.0005023269
C             0.2497488239        0.2497488239        0.2505023269



     Writing config-only to output data dir ./Diamond.save/
     NEW-OLD atomic charge density approx. for the potential

     total cpu time spent up to now is       13.7 secs

     Self-consistent Calculation

     iteration #  1     ecut=    40.00 Ry     beta= 0.70
     CG style diagonalization
     c_bands:  1 eigenvalues not converged
     ethr =  1.00E-06,  avg # of iterations =  3.7

     Threshold (ethr) on eigenvalues was too large:
     Diagonalizing with lowered threshold

     CG style diagonalization
     c_bands:  1 eigenvalues not converged
     c_bands:  1 eigenvalues not converged
     c_bands:  1 eigenvalues not converged
     ethr =  2.03E-08,  avg # of iterations =  4.5

     total cpu time spent up to now is       16.4 secs

     total energy              =     -23.05620658 Ry
     estimated scf accuracy    <       0.00000123 Ry

     iteration #  2     ecut=    40.00 Ry     beta= 0.70
     CG style diagonalization
     ethr =  1.53E-08,  avg # of iterations =  3.4

     total cpu time spent up to now is       17.5 secs

     total energy              =     -23.05620671 Ry
     estimated scf accuracy    <       0.00000002 Ry

     iteration #  3     ecut=    40.00 Ry     beta= 0.70
     CG style diagonalization
     ethr =  2.86E-10,  avg # of iterations =  4.0

     total cpu time spent up to now is       18.8 secs

     total energy              =     -23.05620671 Ry
     estimated scf accuracy    <          1.2E-09 Ry

     iteration #  4     ecut=    40.00 Ry     beta= 0.70
     CG style diagonalization
     ethr =  1.48E-11,  avg # of iterations =  3.8

     total cpu time spent up to now is       20.0 secs

     End of self-consistent calculation

          k = 0.0000 0.0000 0.0000 (   331 PWs)   bands (ev):

    -8.0718  13.5871  13.6795  13.6800

          k =-0.1670 0.1670-0.1660 (   320 PWs)   bands (ev):

    -7.2904   9.8447  12.5591  12.6333

          k =-0.3340 0.3340-0.3320 (   309 PWs)   bands (ev):

    -4.9904   4.1432  11.2203  11.3198

          k = 0.5010-0.5010 0.4980 (   332 PWs)   bands (ev):

    -2.0575  -0.0489  10.7237  10.8347

          k = 0.0000 0.3340-0.0000 (   311 PWs)   bands (ev):

    -7.0265  10.9524  11.0014  11.5090

          k =-0.1670 0.5010-0.1660 (   319 PWs)   bands (ev):

    -5.2288   6.3370   9.6767  10.2333

          k = 0.6680-0.3340 0.6640 (   319 PWs)   bands (ev):

    -2.1407   1.4121   8.6274   9.5448

          k = 0.5010-0.1670 0.4980 (   316 PWs)   bands (ev):

    -3.2796   2.9706   7.9058  10.5804

          k = 0.3340-0.0000 0.3320 (   317 PWs)   bands (ev):

    -6.0061   7.9320   8.7335  12.2154

          k = 0.0000 0.6680-0.0000 (   323 PWs)   bands (ev):

    -3.9550   6.5657   8.1474   8.1664

          k = 0.8350-0.1670 0.8300 (   318 PWs)   bands (ev):

    -1.2976   3.4513   5.7616   7.8204

          k = 0.6680-0.0000 0.6640 (   323 PWs)   bands (ev):

    -0.4363   2.6883   3.9959   8.7997

          k = 0.0000-1.0020 0.0000 (   314 PWs)   bands (ev):

     0.8574   0.8575   7.1410   7.1411

          k = 0.0000 0.0000 0.3320 (   307 PWs)   bands (ev):

    -7.0391  11.0328  11.0330  11.4045

          k =-0.3340 0.3340-0.0000 (   317 PWs)   bands (ev):

    -5.9936   7.9100   8.6641  12.2936

          k = 0.5010-0.5010 0.8300 (   316 PWs)   bands (ev):

    -3.2570   2.9298   7.8214  10.6704

          k = 0.3340-0.3340 0.6640 (   317 PWs)   bands (ev):

    -2.1706   1.4386   8.5247   9.6299

          k = 0.1670-0.1670 0.4980 (   320 PWs)   bands (ev):

    -5.2534   6.3643   9.7495  10.1413

          k = 0.6680-0.3340 0.9960 (   318 PWs)   bands (ev):

    -2.9868   4.9287   6.0918   8.7525

          k = 0.5010-0.1670 0.8300 (   317 PWs)   bands (ev):

    -0.2689   1.7351   5.6818   7.5308

          k = 0.3340-0.0000 0.6640 (   318 PWs)   bands (ev):

    -3.0331   4.9600   6.1828   8.6661

          k =-1.0020-0.3340-0.6640 (   318 PWs)   bands (ev):

    -2.9979   4.9663   6.1459   8.7140

          k =-0.3340-1.0020 0.0000 (   312 PWs)   bands (ev):

     1.4468   1.4469   5.5519   5.5521

          k =-0.8350-0.1670-0.4980 (   318 PWs)   bands (ev):

    -0.2556   1.7474   5.7226   7.5243

          k = 0.0000-1.0020 0.3320 (   318 PWs)   bands (ev):

     1.4480   1.4481   5.5782   5.5783

          k = 0.0000 0.0000 0.6640 (   323 PWs)   bands (ev):

    -4.0035   6.4418   8.2374   8.2375

          k = 0.3340-0.3340 0.9960 (   323 PWs)   bands (ev):

    -0.4113   2.6106   3.9290   8.8943

          k = 0.1670-0.1670 0.8300 (   318 PWs)   bands (ev):

    -1.3643   3.4007   5.7664   7.9100

          k =-0.6680-1.0020 0.0000 (   308 PWs)   bands (ev):

     1.3782   1.3783   5.6189   5.6191

          k = 0.0000 0.0000-0.9960 (   326 PWs)   bands (ev):

     0.7605   0.7606   7.2316   7.2317

          k = 0.1670 0.1670 0.1660 (   320 PWs)   bands (ev):

    -7.2904   9.8447  12.5594  12.6329

          k =-0.1670-0.1670 0.1660 (   320 PWs)   bands (ev):

    -7.2904   9.8449  12.5591  12.6329

          k = 0.3340 0.3340 0.3320 (   309 PWs)   bands (ev):

    -4.9904   4.1433  11.2206  11.3195

          k =-0.3340-0.3340 0.3320 (   309 PWs)   bands (ev):

    -4.9904   4.1433  11.2204  11.3196

          k =-0.5010-0.5010-0.4980 (   332 PWs)   bands (ev):

    -2.0575  -0.0489  10.7241  10.8343

          k = 0.5010 0.5010-0.4980 (   332 PWs)   bands (ev):

    -2.0576  -0.0488  10.7239  10.8344

          k = 0.1670 0.5010 0.1660 (   319 PWs)   bands (ev):

    -5.2288   6.3371   9.6767  10.2332

          k =-0.1670-0.5010 0.1660 (   319 PWs)   bands (ev):

    -5.2288   6.3372   9.6766  10.2332

          k = 0.5010-0.1670 0.1660 (   319 PWs)   bands (ev):

    -5.2288   6.3370   9.6765  10.2335

          k =-0.6680-0.3340-0.6640 (   319 PWs)   bands (ev):

    -2.1407   1.4122   8.6274   9.5448

          k = 0.6680 0.3340-0.6640 (   319 PWs)   bands (ev):

    -2.1407   1.4123   8.6274   9.5447

          k =-0.3340 0.6680-0.6640 (   319 PWs)   bands (ev):

    -2.1407   1.4121   8.6276   9.5446

          k =-0.5010-0.1670-0.4980 (   316 PWs)   bands (ev):

    -3.2796   2.9706   7.9058  10.5804

          k = 0.5010 0.1670-0.4980 (   316 PWs)   bands (ev):

    -3.2796   2.9707   7.9058  10.5803

          k =-0.1670 0.5010-0.4980 (   316 PWs)   bands (ev):

    -3.2796   2.9706   7.9059  10.5802

          k = 0.3340 0.0000-0.3320 (   317 PWs)   bands (ev):

    -6.0061   7.9321   8.7335  12.2152

          k =-0.8350-0.1670-0.8300 (   318 PWs)   bands (ev):

    -1.2976   3.4514   5.7616   7.8204

          k = 0.8350 0.1670-0.8300 (   318 PWs)   bands (ev):

    -1.2976   3.4515   5.7616   7.8203

          k =-0.1670 0.8350-0.8300 (   318 PWs)   bands (ev):

    -1.2976   3.4513   5.7618   7.8203

          k = 0.6680-0.0000-0.6640 (   323 PWs)   bands (ev):

    -0.4364   2.6883   3.9959   8.7996

          k = 0.3340 0.3340 0.0000 (   317 PWs)   bands (ev):

    -5.9936   7.9103   8.6641  12.2932

          k =-0.5010-0.5010-0.8300 (   316 PWs)   bands (ev):

    -3.2570   2.9299   7.8215  10.6701

          k = 0.5010 0.5010-0.8300 (   316 PWs)   bands (ev):

    -3.2570   2.9300   7.8214  10.6701

          k =-0.3340-0.3340-0.6640 (   317 PWs)   bands (ev):

    -2.1706   1.4386   8.5249   9.6296

          k = 0.3340 0.3340-0.6640 (   317 PWs)   bands (ev):

    -2.1706   1.4387   8.5247   9.6297

          k =-0.1670-0.1670-0.4980 (   320 PWs)   bands (ev):

    -5.2534   6.3643   9.7492  10.1415

          k = 0.1670 0.1670-0.4980 (   320 PWs)   bands (ev):

    -5.2534   6.3644   9.7493  10.1413

          k =-0.6680-0.3340-0.9960 (   318 PWs)   bands (ev):

    -2.9868   4.9289   6.0918   8.7523

          k =-0.5010-0.1670-0.8300 (   317 PWs)   bands (ev):

    -0.2689   1.7352   5.6820   7.5306

          k = 0.5010 0.1670-0.8300 (   317 PWs)   bands (ev):

    -0.2690   1.7353   5.6819   7.5306

          k =-0.1670 0.5010-0.8300 (   317 PWs)   bands (ev):

    -0.2689   1.7351   5.6819   7.5307

          k = 0.3340 0.0000-0.6640 (   318 PWs)   bands (ev):

    -3.0331   4.9601   6.1828   8.6660

          k = 1.0020-0.3340 0.6640 (   318 PWs)   bands (ev):

    -2.9979   4.9664   6.1459   8.7138

          k = 0.8350-0.1670 0.4980 (   318 PWs)   bands (ev):

    -0.2556   1.7474   5.7228   7.5241

          k =-0.1670-0.8350 0.4980 (   318 PWs)   bands (ev):

    -0.2557   1.7476   5.7226   7.5241

          k =-0.3340-0.3340-0.9960 (   323 PWs)   bands (ev):

    -0.4113   2.6107   3.9290   8.8941

          k =-0.1670-0.1670-0.8300 (   318 PWs)   bands (ev):

    -1.3643   3.4007   5.7666   7.9099

          k = 0.1670 0.1670-0.8300 (   318 PWs)   bands (ev):

    -1.3643   3.4008   5.7665   7.9099

     highest occupied level (ev):    13.6800

!    total energy              =     -23.05620671 Ry
     estimated scf accuracy    <          3.7E-11 Ry

     The total energy is the sum of the following terms:
     one-electron contribution =       8.28704242 Ry
     hartree contribution      =       1.88832786 Ry
     xc contribution           =      -7.39536991 Ry
     ewald contribution        =     -25.83620708 Ry

     convergence has been achieved in   4 iterations

     Forces acting on atoms (cartesian axes, Ry/au):

     atom    1 type  1   force =    -0.00001357   -0.00001357    0.00002643
     atom    2 type  1   force =     0.00001357    0.00001357   -0.00002643

     Total force =     0.000046     Total SCF correction =     0.000007
     SCF correction compared to forces is large: reduce conv_thr to get better values


     Computing stress (Cartesian axis) and pressure

          total   stress  (Ry/bohr**3)                   (kbar)     P=        4.21
   0.00015894  -0.00000015   0.00000009           23.38       -0.02        0.01
  -0.00000015   0.00015894   0.00000009           -0.02       23.38        0.01
   0.00000009   0.00000009  -0.00023204            0.01        0.01      -34.13

     Energy error            =      9.9E-06 Ry
     Gradient error          =      2.6E-05 Ry/Bohr

     bfgs converged in   3 scf cycles and   2 bfgs steps
     (criteria: energy <  1.0E-04 Ry, force <  1.0E-03 Ry/Bohr)

     End of BFGS Geometry Optimization

     Final energy             =     -23.0562067149 Ry

     File ./Diamond.bfgs deleted, as requested
Begin final coordinates

ATOMIC_POSITIONS (alat)
C             0.0002511761        0.0002511761       -0.0005023269
C             0.2497488239        0.2497488239        0.2505023269
End final coordinates



     Writing all to output data dir ./Diamond.save/
 
     init_run     :      0.74s CPU      0.79s WALL (       1 calls)
     electrons    :     14.97s CPU     18.04s WALL (       3 calls)
     update_pot   :      0.02s CPU      0.03s WALL (       2 calls)
     forces       :      0.12s CPU      0.14s WALL (       3 calls)
     stress       :      0.69s CPU      0.71s WALL (       3 calls)

     Called by init_run:
     wfcinit      :      0.44s CPU      0.46s WALL (       1 calls)
     potinit      :      0.00s CPU      0.01s WALL (       1 calls)
     hinit0       :      0.28s CPU      0.30s WALL (       1 calls)

     Called by electrons:
     c_bands      :     13.30s CPU     16.23s WALL (      14 calls)
     sum_band     :      1.56s CPU      1.64s WALL (      14 calls)
     v_of_rho     :      0.03s CPU      0.04s WALL (      16 calls)
     newd         :      0.06s CPU      0.06s WALL (      16 calls)
     mix_rho      :      0.01s CPU      0.01s WALL (      14 calls)

     Called by c_bands:
     init_us_2    :      0.47s CPU      0.56s WALL (    2380 calls)
     init_us_2:cp :      0.44s CPU      0.53s WALL (    2380 calls)
     ccgdiagg     :     10.61s CPU     11.79s WALL (     952 calls)
     wfcrot       :      2.50s CPU      2.68s WALL (     748 calls)

     Called by *cgdiagg:
     h_psi        :     10.78s CPU     11.85s WALL (   13217 calls)
     s_psi        :      0.49s CPU      0.57s WALL (   25686 calls)

     Called by h_psi:
     h_psi:calbec :      0.44s CPU      0.49s WALL (   13217 calls)
     vloc_psi     :      9.55s CPU     10.48s WALL (   13217 calls)
     add_vuspsi   :      0.27s CPU      0.31s WALL (   13217 calls)
     hs_1psi      :      9.35s CPU     10.36s WALL (   12469 calls)
     s_1psi       :      0.83s CPU      0.93s WALL (   12469 calls)

     General routines
     calbec       :      0.56s CPU      0.64s WALL (   27658 calls)
     fft          :      0.03s CPU      0.05s WALL (      91 calls)
     ffts         :      0.00s CPU      0.00s WALL (      14 calls)
     fftw         :      9.75s CPU     10.65s WALL (   35274 calls)
 
     Parallel routines
 
     PWSCF        :     16.97s CPU     20.83s WALL

 
   This run was terminated on:  23:25:12  14Mar2022            

=------------------------------------------------------------------------------=
   JOB DONE.
=------------------------------------------------------------------------------=
