
     Program PWSCF v.7.0 starts on 14Mar2022 at 23:25:39 

     This program is part of the open-source Quantum ESPRESSO suite
     for quantum simulation of materials; please cite
         "P. Giannozzi et al., J. Phys.:Condens. Matter 21 395502 (2009);
         "P. Giannozzi et al., J. Phys.:Condens. Matter 29 465901 (2017);
         "P. Giannozzi et al., J. Chem. Phys. 152 154105 (2020);
          URL http://www.quantum-espresso.org", 
     in publications or presentations arising from this work. More details at
     http://www.quantum-espresso.org/quote

     Parallel version (MPI), running on     1 processors

     MPI processes distributed on     1 nodes
     90867 MiB available memory on the printing compute node when the environment starts
 
     Waiting for input...
     Reading input from standard input
Warning: card &CELL ignored
Warning: card  CELL_DYNAMICS = 'BFGS', ignored
Warning: card  PRESS=0.1D0, ignored
Warning: card / ignored
     Message from routine read_cards :
     DEPRECATED: no units specified in ATOMIC_POSITIONS card
     Message from routine read_cards :
     ATOMIC_POSITIONS: units set to alat

     Current dimensions of program PWSCF are:
     Max number of different atomic species (ntypx) = 10
     Max number of k-points (npk) =  40000
     Max angular momentum in pseudopotentials (lmaxx) =  4
     Message from routine setup:
     using ibrav=0 with symmetry is DISCOURAGED, use correct ibrav instead

     Subspace diagonalization in iterative solution of the eigenvalue problem:
     a serial algorithm will be used

 
     G-vector sticks info
     --------------------
     sticks:   dense  smooth     PW     G-vecs:    dense   smooth      PW
     Sum         249     249     85                 2581     2581     531
 
     Using Slab Decomposition
 


     bravais-lattice index     =            0
     lattice parameter (alat)  =       6.6720  a.u.
     unit-cell volume          =      74.2484 (a.u.)^3
     number of atoms/cell      =            2
     number of atomic types    =            1
     number of electrons       =         8.00
     number of Kohn-Sham states=            4
     kinetic-energy cutoff     =      40.0000  Ry
     charge density cutoff     =     160.0000  Ry
     scf convergence threshold =      1.0E-08
     mixing beta               =       0.7000
     number of iterations used =            8  plain     mixing
     energy convergence thresh.=      1.0E-04
     force convergence thresh. =      1.0E-03
     Exchange-correlation= SLA  PZ   NOGX NOGC
                           (   1   1   0   0   0   0   0)
     nstep                     =           50


     celldm(1)=   6.672000  celldm(2)=   0.000000  celldm(3)=   0.000000
     celldm(4)=   0.000000  celldm(5)=   0.000000  celldm(6)=   0.000000

     crystal axes: (cart. coord. in units of alat)
               a(1) = (  -0.502000   0.000000   0.496000 )  
               a(2) = (   0.000000   0.502000   0.496000 )  
               a(3) = (  -0.502000   0.502000   0.000000 )  

     reciprocal axes: (cart. coord. in units 2 pi/alat)
               b(1) = ( -0.996016 -0.996016  1.008065 )  
               b(2) = (  0.996016  0.996016  1.008065 )  
               b(3) = ( -0.996016  0.996016 -1.008065 )  


     PseudoPot. # 1 for C  read from file:
     ./C_LDA.UPF
     MD5 check sum: 407c1fe918d93b14b177d5600f28733c
     Pseudo is Ultrasoft + core correction, Zval =  4.0
     Generated by new atomic code, or converted to UPF format
     Using radial grid of  721 points,  4 beta functions with: 
                l(1) =   0
                l(2) =   0
                l(3) =   1
                l(4) =   1
     Q(r) pseudized with  8 coefficients,  rinner =    1.100   1.100   1.100


     atomic species   valence    mass     pseudopotential
        C              4.00    12.01100     C ( 1.00)

      2 Sym. Ops. (no inversion) found



   Cartesian axes

     site n.     atom                  positions (alat units)
         1           C   tau(   1) = (   0.0000000   0.0000000   0.0000000  )
         2           C   tau(   2) = (   0.2500000   0.2500000   0.2500000  )

     number of k points=    68
                       cart. coord. in units 2pi/alat
        k(    1) = (   0.0000000   0.0000000   0.0000000), wk =   0.0092593
        k(    2) = (  -0.1660027   0.1660027  -0.1680108), wk =   0.0370370
        k(    3) = (  -0.3320053   0.3320053  -0.3360215), wk =   0.0370370
        k(    4) = (   0.4980080  -0.4980080   0.5040323), wk =   0.0185185
        k(    5) = (  -0.0000000   0.3320053   0.0000000), wk =   0.0370370
        k(    6) = (  -0.1660027   0.4980080  -0.1680108), wk =   0.0370370
        k(    7) = (   0.6640106  -0.3320053   0.6720430), wk =   0.0370370
        k(    8) = (   0.4980080  -0.1660027   0.5040323), wk =   0.0370370
        k(    9) = (   0.3320053  -0.0000000   0.3360215), wk =   0.0370370
        k(   10) = (  -0.0000000   0.6640106   0.0000000), wk =   0.0370370
        k(   11) = (   0.8300133  -0.1660027   0.8400538), wk =   0.0370370
        k(   12) = (   0.6640106  -0.0000000   0.6720430), wk =   0.0370370
        k(   13) = (   0.0000000  -0.9960159   0.0000000), wk =   0.0185185
        k(   14) = (  -0.0000000  -0.0000000   0.3360215), wk =   0.0185185
        k(   15) = (  -0.3320053   0.3320053   0.0000000), wk =   0.0185185
        k(   16) = (   0.4980080  -0.4980080   0.8400538), wk =   0.0370370
        k(   17) = (   0.3320053  -0.3320053   0.6720430), wk =   0.0370370
        k(   18) = (   0.1660027  -0.1660027   0.5040323), wk =   0.0370370
        k(   19) = (   0.6640106  -0.3320053   1.0080645), wk =   0.0370370
        k(   20) = (   0.4980080  -0.1660027   0.8400538), wk =   0.0370370
        k(   21) = (   0.3320053  -0.0000000   0.6720430), wk =   0.0370370
        k(   22) = (  -0.9960159  -0.3320053  -0.6720430), wk =   0.0370370
        k(   23) = (  -0.3320053  -0.9960159   0.0000000), wk =   0.0370370
        k(   24) = (  -0.8300133  -0.1660027  -0.5040323), wk =   0.0185185
        k(   25) = (   0.0000000  -0.9960159   0.3360215), wk =   0.0370370
        k(   26) = (  -0.0000000  -0.0000000   0.6720430), wk =   0.0185185
        k(   27) = (   0.3320053  -0.3320053   1.0080645), wk =   0.0185185
        k(   28) = (   0.1660027  -0.1660027   0.8400538), wk =   0.0370370
        k(   29) = (  -0.6640106  -0.9960159   0.0000000), wk =   0.0370370
        k(   30) = (   0.0000000   0.0000000  -1.0080645), wk =   0.0092593
        k(   31) = (   0.1660027   0.1660027   0.1680108), wk =   0.0185185
        k(   32) = (  -0.1660027  -0.1660027   0.1680108), wk =   0.0185185
        k(   33) = (   0.3320053   0.3320053   0.3360215), wk =   0.0185185
        k(   34) = (  -0.3320053  -0.3320053   0.3360215), wk =   0.0185185
        k(   35) = (  -0.4980080  -0.4980080  -0.5040323), wk =   0.0092593
        k(   36) = (   0.4980080   0.4980080  -0.5040323), wk =   0.0092593
        k(   37) = (   0.1660027   0.4980080   0.1680108), wk =   0.0370370
        k(   38) = (  -0.1660027  -0.4980080   0.1680108), wk =   0.0370370
        k(   39) = (   0.4980080  -0.1660027   0.1680108), wk =   0.0370370
        k(   40) = (  -0.6640106  -0.3320053  -0.6720430), wk =   0.0370370
        k(   41) = (   0.6640106   0.3320053  -0.6720430), wk =   0.0370370
        k(   42) = (  -0.3320053   0.6640106  -0.6720430), wk =   0.0370370
        k(   43) = (  -0.4980080  -0.1660027  -0.5040323), wk =   0.0370370
        k(   44) = (   0.4980080   0.1660027  -0.5040323), wk =   0.0370370
        k(   45) = (  -0.1660027   0.4980080  -0.5040323), wk =   0.0370370
        k(   46) = (   0.3320053   0.0000000  -0.3360215), wk =   0.0370370
        k(   47) = (  -0.8300133  -0.1660027  -0.8400538), wk =   0.0370370
        k(   48) = (   0.8300133   0.1660027  -0.8400538), wk =   0.0370370
        k(   49) = (  -0.1660027   0.8300133  -0.8400538), wk =   0.0370370
        k(   50) = (   0.6640106   0.0000000  -0.6720430), wk =   0.0370370
        k(   51) = (   0.3320053   0.3320053   0.0000000), wk =   0.0185185
        k(   52) = (  -0.4980080  -0.4980080  -0.8400538), wk =   0.0185185
        k(   53) = (   0.4980080   0.4980080  -0.8400538), wk =   0.0185185
        k(   54) = (  -0.3320053  -0.3320053  -0.6720430), wk =   0.0185185
        k(   55) = (   0.3320053   0.3320053  -0.6720430), wk =   0.0185185
        k(   56) = (  -0.1660027  -0.1660027  -0.5040323), wk =   0.0185185
        k(   57) = (   0.1660027   0.1660027  -0.5040323), wk =   0.0185185
        k(   58) = (  -0.6640106  -0.3320053  -1.0080645), wk =   0.0370370
        k(   59) = (  -0.4980080  -0.1660027  -0.8400538), wk =   0.0370370
        k(   60) = (   0.4980080   0.1660027  -0.8400538), wk =   0.0370370
        k(   61) = (  -0.1660027   0.4980080  -0.8400538), wk =   0.0370370
        k(   62) = (   0.3320053   0.0000000  -0.6720430), wk =   0.0370370
        k(   63) = (   0.9960159  -0.3320053   0.6720430), wk =   0.0370370
        k(   64) = (   0.8300133  -0.1660027   0.5040323), wk =   0.0370370
        k(   65) = (  -0.1660027  -0.8300133   0.5040323), wk =   0.0185185
        k(   66) = (  -0.3320053  -0.3320053  -1.0080645), wk =   0.0185185
        k(   67) = (  -0.1660027  -0.1660027  -0.8400538), wk =   0.0185185
        k(   68) = (   0.1660027   0.1660027  -0.8400538), wk =   0.0185185

     Dense  grid:     2581 G-vectors     FFT dimensions: (  20,  20,  20)

     Estimated max dynamical RAM per process >       5.29 MB

     Initial potential from superposition of free atoms

     starting charge       7.9999, renormalised to       8.0000
     Starting wfcs are    8 randomized atomic wfcs

     total cpu time spent up to now is        1.2 secs

     Self-consistent Calculation

     iteration #  1     ecut=    40.00 Ry     beta= 0.70
     CG style diagonalization
     ethr =  1.00E-02,  avg # of iterations =  3.0

     total cpu time spent up to now is        2.2 secs

     total energy              =     -23.03895571 Ry
     estimated scf accuracy    <       0.14165987 Ry

     iteration #  2     ecut=    40.00 Ry     beta= 0.70
     CG style diagonalization
     ethr =  1.77E-03,  avg # of iterations =  3.6

     total cpu time spent up to now is        3.4 secs

     total energy              =     -23.05541725 Ry
     estimated scf accuracy    <       0.00146422 Ry

     iteration #  3     ecut=    40.00 Ry     beta= 0.70
     CG style diagonalization
     ethr =  1.83E-05,  avg # of iterations =  4.0

     total cpu time spent up to now is        4.7 secs

     total energy              =     -23.05590740 Ry
     estimated scf accuracy    <       0.00004724 Ry

     iteration #  4     ecut=    40.00 Ry     beta= 0.70
     CG style diagonalization
     ethr =  5.91E-07,  avg # of iterations =  4.1

     total cpu time spent up to now is        6.0 secs

     total energy              =     -23.05592431 Ry
     estimated scf accuracy    <       0.00000214 Ry

     iteration #  5     ecut=    40.00 Ry     beta= 0.70
     CG style diagonalization
     ethr =  2.67E-08,  avg # of iterations =  4.0

     total cpu time spent up to now is        7.3 secs

     total energy              =     -23.05592505 Ry
     estimated scf accuracy    <       0.00000002 Ry

     iteration #  6     ecut=    40.00 Ry     beta= 0.70
     CG style diagonalization
     ethr =  2.13E-10,  avg # of iterations =  4.6

     total cpu time spent up to now is        8.7 secs

     End of self-consistent calculation

          k = 0.0000 0.0000 0.0000 (   331 PWs)   bands (ev):

    -8.0716  13.4786  13.6495  13.8224

          k =-0.1660 0.1660-0.1680 (   319 PWs)   bands (ev):

    -7.2902   9.8082  12.5644  12.6780

          k =-0.3320 0.3320-0.3360 (   311 PWs)   bands (ev):

    -4.9899   4.1249  11.2182  11.3479

          k = 0.4980-0.4980 0.5040 (   324 PWs)   bands (ev):

    -2.0453  -0.0748  10.7170  10.8616

          k =-0.0000 0.3320 0.0000 (   311 PWs)   bands (ev):

    -7.0388  10.9661  11.0806  11.4275

          k =-0.1660 0.4980-0.1680 (   319 PWs)   bands (ev):

    -5.2532   6.3420   9.7722  10.1488

          k = 0.6640-0.3320 0.6720 (   318 PWs)   bands (ev):

    -2.1657   1.4187   8.5254   9.6516

          k = 0.4980-0.1660 0.5040 (   316 PWs)   bands (ev):

    -3.2551   2.9101   7.8225  10.6978

          k = 0.3320-0.0000 0.3360 (   317 PWs)   bands (ev):

    -5.9933   7.8794   8.6670  12.3386

          k =-0.0000 0.6640 0.0000 (   323 PWs)   bands (ev):

    -4.0032   6.4404   8.2129   8.2682

          k = 0.8300-0.1660 0.8401 (   320 PWs)   bands (ev):

    -1.3625   3.3887   5.7632   7.9304

          k = 0.6640-0.0000 0.6720 (   320 PWs)   bands (ev):

    -0.4047   2.5941   3.9229   8.9193

          k = 0.0000-0.9960 0.0000 (   322 PWs)   bands (ev):

     0.7487   0.7728   7.2162   7.2521

          k =-0.0000-0.0000 0.3360 (   315 PWs)   bands (ev):

    -7.0133  10.8639  10.9749  11.6172

          k =-0.3320 0.3320 0.0000 (   317 PWs)   bands (ev):

    -6.0187   7.8957   8.8096  12.2240

          k = 0.4980-0.4980 0.8401 (   317 PWs)   bands (ev):

    -3.3008   2.9906   7.9660  10.5559

          k = 0.3320-0.3320 0.6720 (   318 PWs)   bands (ev):

    -2.1054   1.3666   8.6988   9.5134

          k = 0.1660-0.1660 0.5040 (   319 PWs)   bands (ev):

    -5.2034   6.2905   9.6537  10.2945

          k = 0.6640-0.3320 1.0081 (   318 PWs)   bands (ev):

    -3.0433   4.9514   6.2399   8.6863

          k = 0.4980-0.1660 0.8401 (   317 PWs)   bands (ev):

    -0.2430   1.7204   5.6796   7.5936

          k = 0.3320-0.0000 0.6720 (   317 PWs)   bands (ev):

    -2.9500   4.9084   6.0553   8.8348

          k =-0.9960-0.3320-0.6720 (   316 PWs)   bands (ev):

    -3.0210   4.9000   6.1302   8.7340

          k =-0.3320-0.9960 0.0000 (   316 PWs)   bands (ev):

     1.3586   1.3988   5.6245   5.6719

          k =-0.8300-0.1660-0.5040 (   316 PWs)   bands (ev):

    -0.2790   1.7260   5.5870   7.5933

          k = 0.0000-0.9960 0.3360 (   316 PWs)   bands (ev):

     1.3615   1.3945   5.5730   5.6132

          k =-0.0000-0.0000 0.6720 (   322 PWs)   bands (ev):

    -3.9055   6.6887   8.0380   8.1176

          k = 0.3320-0.3320 1.0081 (   319 PWs)   bands (ev):

    -0.4526   2.7342   4.0536   8.7532

          k = 0.1660-0.1660 0.8401 (   316 PWs)   bands (ev):

    -1.2284   3.4939   5.7300   7.7708

          k =-0.6640-0.9960 0.0000 (   322 PWs)   bands (ev):

     1.4860   1.5470   5.4758   5.5516

          k = 0.0000 0.0000-1.0081 (   310 PWs)   bands (ev):

     0.9319   0.9796   7.0157   7.0859

          k = 0.1660 0.1660 0.1680 (   319 PWs)   bands (ev):

    -7.2900   9.8465  12.4295  12.7645

          k =-0.1660-0.1660 0.1680 (   319 PWs)   bands (ev):

    -7.2898   9.9142  12.4474  12.6577

          k = 0.3320 0.3320 0.3360 (   311 PWs)   bands (ev):

    -4.9898   4.1444  11.0852  11.4569

          k =-0.3320-0.3320 0.3360 (   311 PWs)   bands (ev):

    -4.9898   4.1823  11.1199  11.3748

          k =-0.4980-0.4980-0.5040 (   324 PWs)   bands (ev):

    -2.0565  -0.0481  10.5833  10.9776

          k = 0.4980 0.4980-0.5040 (   324 PWs)   bands (ev):

    -2.0793   0.0055  10.6236  10.9011

          k = 0.1660 0.4980 0.1680 (   319 PWs)   bands (ev):

    -5.2530   6.3716   9.7446  10.1381

          k =-0.1660-0.4980 0.1680 (   319 PWs)   bands (ev):

    -5.2528   6.4176   9.7240  10.1045

          k = 0.4980-0.1660 0.1680 (   319 PWs)   bands (ev):

    -5.2533   6.3299   9.7139  10.2295

          k =-0.6640-0.3320-0.6720 (   318 PWs)   bands (ev):

    -2.1701   1.4413   8.4812   9.6752

          k = 0.6640 0.3320-0.6720 (   318 PWs)   bands (ev):

    -2.1793   1.4835   8.4888   9.6263

          k =-0.3320 0.6640-0.6720 (   318 PWs)   bands (ev):

    -2.1653   1.4151   8.5874   9.5899

          k =-0.4980-0.1660-0.5040 (   316 PWs)   bands (ev):

    -3.2561   2.9288   7.7918  10.7117

          k = 0.4980 0.1660-0.5040 (   316 PWs)   bands (ev):

    -3.2585   2.9691   7.7946  10.6544

          k =-0.1660 0.4980-0.5040 (   316 PWs)   bands (ev):

    -3.2554   2.9141   7.8730  10.6244

          k = 0.3320 0.0000-0.3360 (   317 PWs)   bands (ev):

    -5.9929   7.9377   8.6641  12.2517

          k =-0.8300-0.1660-0.8401 (   320 PWs)   bands (ev):

    -1.3643   3.4127   5.7356   7.9339

          k = 0.8300 0.1660-0.8401 (   320 PWs)   bands (ev):

    -1.3677   3.4389   5.7452   7.8959

          k =-0.1660 0.8300-0.8401 (   320 PWs)   bands (ev):

    -1.3616   3.3649   5.8262   7.8886

          k = 0.6640 0.0000-0.6720 (   320 PWs)   bands (ev):

    -0.4161   2.6275   3.9369   8.8719

          k = 0.3320 0.3320 0.0000 (   317 PWs)   bands (ev):

    -6.0178   8.0153   8.7994  12.0545

          k =-0.4980-0.4980-0.8401 (   317 PWs)   bands (ev):

    -3.3019   3.0165   8.0439  10.4192

          k = 0.4980 0.4980-0.8401 (   317 PWs)   bands (ev):

    -3.3040   3.0529   7.9926  10.4380

          k =-0.3320-0.3320-0.6720 (   318 PWs)   bands (ev):

    -2.1093   1.3831   8.7971   9.3964

          k = 0.3320 0.3320-0.6720 (   318 PWs)   bands (ev):

    -2.1196   1.4292   8.7339   9.4178

          k =-0.1660-0.1660-0.5040 (   319 PWs)   bands (ev):

    -5.2035   6.2988   9.5503  10.4021

          k = 0.1660 0.1660-0.5040 (   319 PWs)   bands (ev):

    -5.2032   6.3550   9.5650  10.3120

          k =-0.6640-0.3320-1.0081 (   318 PWs)   bands (ev):

    -3.0448   5.0453   6.2376   8.5733

          k =-0.4980-0.1660-0.8401 (   317 PWs)   bands (ev):

    -0.2574   1.7486   5.7412   7.5085

          k = 0.4980 0.1660-0.8401 (   317 PWs)   bands (ev):

    -0.2829   1.8140   5.7071   7.4983

          k =-0.1660 0.4980-0.8401 (   317 PWs)   bands (ev):

    -0.2443   1.7168   5.7408   7.5315

          k = 0.3320 0.0000-0.6720 (   317 PWs)   bands (ev):

    -2.9510   4.9553   6.0552   8.7763

          k = 0.9960-0.3320 0.6720 (   316 PWs)   bands (ev):

    -3.0220   4.9469   6.1298   8.6765

          k = 0.8300-0.1660 0.5040 (   316 PWs)   bands (ev):

    -0.2682   1.6884   5.6932   7.5081

          k =-0.1660-0.8300 0.5040 (   316 PWs)   bands (ev):

    -0.3058   1.7885   5.6073   7.5278

          k =-0.3320-0.3320-1.0081 (   319 PWs)   bands (ev):

    -0.4721   2.8008   4.0784   8.6605

          k =-0.1660-0.1660-0.8401 (   316 PWs)   bands (ev):

    -1.2288   3.4711   5.8291   7.6906

          k = 0.1660 0.1660-0.8401 (   316 PWs)   bands (ev):

    -1.2335   3.5263   5.7698   7.6952

     highest occupied level (ev):    13.8224

!    total energy              =     -23.05592508 Ry
     estimated scf accuracy    <          1.1E-09 Ry

     The total energy is the sum of the following terms:
     one-electron contribution =       8.28813461 Ry
     hartree contribution      =       1.88801881 Ry
     xc contribution           =      -7.39536510 Ry
     ewald contribution        =     -25.83671340 Ry

     convergence has been achieved in   6 iterations

     Forces acting on atoms (cartesian axes, Ry/au):

     atom    1 type  1   force =    -0.00520496   -0.00520496    0.01071665
     atom    2 type  1   force =     0.00520496    0.00520496   -0.01071665

     Total force =     0.018386     Total SCF correction =     0.000001


     Computing stress (Cartesian axis) and pressure

          total   stress  (Ry/bohr**3)                   (kbar)     P=        4.57
  -0.00022512  -0.00002967   0.00001303          -33.12       -4.37        1.92
  -0.00002967  -0.00022512   0.00001303           -4.37      -33.12        1.92
   0.00001303   0.00001303   0.00054343            1.92        1.92       79.94


     BFGS Geometry Optimization
     Energy error            =      0.0E+00 Ry
     Gradient error          =      1.1E-02 Ry/Bohr

     number of scf cycles    =   1
     number of bfgs steps    =   0

     energy             new  =     -23.0559250761 Ry

     new trust radius        =       0.0130011503 bohr
     new conv_thr            =       0.0000000100 Ry


ATOMIC_POSITIONS (alat)
C            -0.0007801204       -0.0007801204        0.0016062128
C             0.2507801204        0.2507801204        0.2483937872



     Writing config-only to output data dir ./Diamond.save/
     NEW-OLD atomic charge density approx. for the potential

     total cpu time spent up to now is        9.1 secs

     Self-consistent Calculation

     iteration #  1     ecut=    40.00 Ry     beta= 0.70
     CG style diagonalization
     c_bands:  1 eigenvalues not converged
     c_bands:  1 eigenvalues not converged
     c_bands:  1 eigenvalues not converged
     ethr =  1.00E-06,  avg # of iterations =  6.4

     total cpu time spent up to now is       11.0 secs

     total energy              =     -23.05599062 Ry
     estimated scf accuracy    <       0.00003331 Ry

     iteration #  2     ecut=    40.00 Ry     beta= 0.70
     CG style diagonalization
     ethr =  4.16E-07,  avg # of iterations =  3.5

     total cpu time spent up to now is       12.2 secs

     total energy              =     -23.05599464 Ry
     estimated scf accuracy    <       0.00000059 Ry

     iteration #  3     ecut=    40.00 Ry     beta= 0.70
     CG style diagonalization
     ethr =  7.36E-09,  avg # of iterations =  3.8

     total cpu time spent up to now is       13.4 secs

     total energy              =     -23.05599482 Ry
     estimated scf accuracy    <       0.00000003 Ry

     iteration #  4     ecut=    40.00 Ry     beta= 0.70
     CG style diagonalization
     ethr =  3.57E-10,  avg # of iterations =  3.8

     total cpu time spent up to now is       14.7 secs

     End of self-consistent calculation

          k = 0.0000 0.0000 0.0000 (   331 PWs)   bands (ev):

    -8.0715  13.5144  13.6561  13.7790

          k =-0.1660 0.1660-0.1680 (   319 PWs)   bands (ev):

    -7.2899   9.8667  12.4679  12.6994

          k =-0.3320 0.3320-0.3360 (   311 PWs)   bands (ev):

    -4.9898   4.1559  11.1272  11.4003

          k = 0.4980-0.4980 0.5040 (   324 PWs)   bands (ev):

    -2.0635  -0.0317  10.6271  10.9225

          k =-0.0000 0.3320 0.0000 (   311 PWs)   bands (ev):

    -7.0388  10.9763  11.0846  11.4132

          k =-0.1660 0.4980-0.1680 (   319 PWs)   bands (ev):

    -5.2529   6.3798   9.7216  10.1550

          k = 0.6640-0.3320 0.6720 (   318 PWs)   bands (ev):

    -2.1727   1.4525   8.5159   9.6280

          k = 0.4980-0.1660 0.5040 (   316 PWs)   bands (ev):

    -3.2569   2.9429   7.8181  10.6582

          k = 0.3320-0.0000 0.3360 (   317 PWs)   bands (ev):

    -5.9930   7.9270   8.6630  12.2707

          k =-0.0000 0.6640 0.0000 (   323 PWs)   bands (ev):

    -4.0031   6.4419   8.2182   8.2611

          k = 0.8300-0.1660 0.8401 (   320 PWs)   bands (ev):

    -1.3648   3.4097   5.7684   7.9022

          k = 0.6640-0.0000 0.6720 (   320 PWs)   bands (ev):

    -0.4134   2.6209   3.9330   8.8823

          k = 0.0000-0.9960 0.0000 (   322 PWs)   bands (ev):

     0.7538   0.7682   7.2242   7.2435

          k =-0.0000-0.0000 0.3360 (   315 PWs)   bands (ev):

    -7.0133  10.8855  10.9576  11.6132

          k =-0.3320 0.3320 0.0000 (   317 PWs)   bands (ev):

    -6.0180   7.9928   8.8004  12.0880

          k = 0.4980-0.4980 0.8401 (   317 PWs)   bands (ev):

    -3.3024   3.0261   8.0077  10.4538

          k = 0.3320-0.3320 0.6720 (   318 PWs)   bands (ev):

    -2.1126   1.3984   8.7518   9.4286

          k = 0.1660-0.1660 0.5040 (   319 PWs)   bands (ev):

    -5.2033   6.3200   9.5766  10.3446

          k = 0.6640-0.3320 1.0081 (   318 PWs)   bands (ev):

    -3.0444   5.0272   6.2375   8.5957

          k = 0.4980-0.1660 0.8401 (   317 PWs)   bands (ev):

    -0.2652   1.7681   5.7393   7.4970

          k = 0.3320-0.0000 0.6720 (   317 PWs)   bands (ev):

    -2.9507   4.9458   6.0545   8.7892

          k =-0.9960-0.3320-0.6720 (   316 PWs)   bands (ev):

    -3.0217   4.9376   6.1289   8.6890

          k =-0.3320-0.9960 0.0000 (   316 PWs)   bands (ev):

     1.3669   1.3911   5.6345   5.6614

          k =-0.8300-0.1660-0.5040 (   316 PWs)   bands (ev):

    -0.2806   1.7197   5.6804   7.4996

          k = 0.0000-0.9960 0.3360 (   316 PWs)   bands (ev):

     1.3685   1.3881   5.5818   5.6037

          k =-0.0000-0.0000 0.6720 (   322 PWs)   bands (ev):

    -3.9054   6.6895   8.0541   8.1010

          k = 0.3320-0.3320 1.0081 (   319 PWs)   bands (ev):

    -0.4680   2.7880   4.0730   8.6790

          k = 0.1660-0.1660 0.8401 (   316 PWs)   bands (ev):

    -1.2305   3.4977   5.7857   7.7085

          k =-0.6640-0.9960 0.0000 (   322 PWs)   bands (ev):

     1.4979   1.5353   5.4910   5.5364

          k = 0.0000 0.0000-1.0081 (   310 PWs)   bands (ev):

     0.9411   0.9705   7.0297   7.0719

          k = 0.1660 0.1660 0.1680 (   319 PWs)   bands (ev):

    -7.2900   9.8419  12.5804  12.6187

          k =-0.1660-0.1660 0.1680 (   319 PWs)   bands (ev):

    -7.2902   9.8042  12.5699  12.6775

          k = 0.3320 0.3320 0.3360 (   311 PWs)   bands (ev):

    -4.9898   4.1432  11.2253  11.3181

          k =-0.3320-0.3320 0.3360 (   311 PWs)   bands (ev):

    -4.9898   4.1219  11.2052  11.3637

          k =-0.4980-0.4980-0.5040 (   324 PWs)   bands (ev):

    -2.0563  -0.0490  10.7229  10.8385

          k = 0.4980 0.4980-0.5040 (   324 PWs)   bands (ev):

    -2.0430  -0.0796  10.6997  10.8809

          k = 0.1660 0.4980 0.1680 (   319 PWs)   bands (ev):

    -5.2531   6.3606   9.7348  10.1670

          k =-0.1660-0.4980 0.1680 (   319 PWs)   bands (ev):

    -5.2532   6.3349   9.7553  10.1762

          k = 0.4980-0.1660 0.1680 (   319 PWs)   bands (ev):

    -5.2529   6.3869   9.7596  10.1043

          k =-0.6640-0.3320-0.6720 (   318 PWs)   bands (ev):

    -2.1698   1.4377   8.5445   9.6129

          k = 0.6640 0.3320-0.6720 (   318 PWs)   bands (ev):

    -2.1646   1.4140   8.5425   9.6374

          k =-0.3320 0.6640-0.6720 (   318 PWs)   bands (ev):

    -2.1729   1.4545   8.4842   9.6592

          k =-0.4980-0.1660-0.5040 (   316 PWs)   bands (ev):

    -3.2562   2.9307   7.8379  10.6493

          k = 0.4980 0.1660-0.5040 (   316 PWs)   bands (ev):

    -3.2549   2.9081   7.8371  10.6799

          k =-0.1660 0.4980-0.5040 (   316 PWs)   bands (ev):

    -3.2567   2.9406   7.7907  10.6979

          k = 0.3320 0.0000-0.3360 (   317 PWs)   bands (ev):

    -5.9932   7.8919   8.6679  12.3178

          k =-0.8300-0.1660-0.8401 (   320 PWs)   bands (ev):

    -1.3636   3.3940   5.7862   7.9000

          k = 0.8300 0.1660-0.8401 (   320 PWs)   bands (ev):

    -1.3617   3.3792   5.7818   7.9202

          k =-0.1660 0.8300-0.8401 (   320 PWs)   bands (ev):

    -1.3653   3.4234   5.7335   7.9246

          k = 0.6640 0.0000-0.6720 (   320 PWs)   bands (ev):

    -0.4070   2.6013   3.9265   8.9080

          k = 0.3320 0.3320 0.0000 (   317 PWs)   bands (ev):

    -6.0185   7.9190   8.8083  12.1899

          k =-0.4980-0.4980-0.8401 (   317 PWs)   bands (ev):

    -3.3017   3.0095   7.9623  10.5356

          k = 0.4980 0.4980-0.8401 (   317 PWs)   bands (ev):

    -3.3005   2.9891   7.9910  10.5248

          k =-0.3320-0.3320-0.6720 (   318 PWs)   bands (ev):

    -2.1100   1.3874   8.6958   9.4968

          k = 0.3320 0.3320-0.6720 (   318 PWs)   bands (ev):

    -2.1042   1.3615   8.7311   9.4846

          k =-0.1660-0.1660-0.5040 (   319 PWs)   bands (ev):

    -5.2033   6.3137   9.6413  10.2791

          k = 0.1660 0.1660-0.5040 (   319 PWs)   bands (ev):

    -5.2034   6.2822   9.6330  10.3293

          k =-0.6640-0.3320-1.0081 (   318 PWs)   bands (ev):

    -3.0435   4.9698   6.2400   8.6635

          k =-0.4980-0.1660-0.8401 (   317 PWs)   bands (ev):

    -0.2561   1.7495   5.7032   7.5482

          k = 0.4980 0.1660-0.8401 (   317 PWs)   bands (ev):

    -0.2412   1.7123   5.7231   7.5529

          k =-0.1660 0.4980-0.8401 (   317 PWs)   bands (ev):

    -0.2645   1.7701   5.7042   7.5323

          k = 0.3320 0.0000-0.6720 (   317 PWs)   bands (ev):

    -2.9501   4.9184   6.0566   8.8209

          k = 0.9960-0.3320 0.6720 (   316 PWs)   bands (ev):

    -3.0212   4.9103   6.1311   8.7201

          k = 0.8300-0.1660 0.5040 (   316 PWs)   bands (ev):

    -0.2876   1.7438   5.6160   7.5501

          k =-0.1660-0.8300 0.5040 (   316 PWs)   bands (ev):

    -0.2649   1.6841   5.6688   7.5361

          k =-0.3320-0.3320-1.0081 (   319 PWs)   bands (ev):

    -0.4562   2.7471   4.0587   8.7347

          k =-0.1660-0.1660-0.8401 (   316 PWs)   bands (ev):

    -1.2301   3.5107   5.7269   7.7564

          k = 0.1660 0.1660-0.8401 (   316 PWs)   bands (ev):

    -1.2275   3.4791   5.7607   7.7538

     highest occupied level (ev):    13.7790

!    total energy              =     -23.05599482 Ry
     estimated scf accuracy    <          1.6E-10 Ry

     The total energy is the sum of the following terms:
     one-electron contribution =       8.28823312 Ry
     hartree contribution      =       1.88800016 Ry
     xc contribution           =      -7.39536389 Ry
     ewald contribution        =     -25.83686421 Ry

     convergence has been achieved in   4 iterations

     Forces acting on atoms (cartesian axes, Ry/au):

     atom    1 type  1   force =     0.00302546    0.00302546   -0.00655040
     atom    2 type  1   force =    -0.00302546   -0.00302546    0.00655040

     Total force =     0.011065     Total SCF correction =     0.000013


     Computing stress (Cartesian axis) and pressure

          total   stress  (Ry/bohr**3)                   (kbar)     P=        4.47
  -0.00022598   0.00001842  -0.00000834          -33.24        2.71       -1.23
   0.00001842  -0.00022598  -0.00000834            2.71      -33.24       -1.23
  -0.00000834  -0.00000834   0.00054315           -1.23       -1.23       79.90

     Energy error            =      7.0E-05 Ry
     Gradient error          =      6.6E-03 Ry/Bohr

     number of scf cycles    =   2
     number of bfgs steps    =   1

     energy             old  =     -23.0559250761 Ry
     energy             new  =     -23.0559948244 Ry

     CASE: energy            _new < energy            _old

     new trust radius        =       0.0048840205 bohr
     new conv_thr            =            1.0E-10 Ry


ATOMIC_POSITIONS (alat)
C            -0.0004970576       -0.0004970576        0.0009933503
C             0.2504970576        0.2504970576        0.2490066497



     Writing config-only to output data dir ./Diamond.save/
     NEW-OLD atomic charge density approx. for the potential

     total cpu time spent up to now is       15.1 secs

     Self-consistent Calculation

     iteration #  1     ecut=    40.00 Ry     beta= 0.70
     CG style diagonalization
     c_bands:  1 eigenvalues not converged
     ethr =  1.00E-06,  avg # of iterations =  5.0

     Threshold (ethr) on eigenvalues was too large:
     Diagonalizing with lowered threshold

     CG style diagonalization
     ethr =  5.75E-08,  avg # of iterations =  3.1

     total cpu time spent up to now is       17.7 secs

     total energy              =     -23.05603123 Ry
     estimated scf accuracy    <       0.00000472 Ry

     iteration #  2     ecut=    40.00 Ry     beta= 0.70
     CG style diagonalization
     ethr =  5.90E-08,  avg # of iterations =  3.5

     total cpu time spent up to now is       18.9 secs

     total energy              =     -23.05603169 Ry
     estimated scf accuracy    <       0.00000009 Ry

     iteration #  3     ecut=    40.00 Ry     beta= 0.70
     CG style diagonalization
     ethr =  1.09E-09,  avg # of iterations =  3.8

     total cpu time spent up to now is       20.1 secs

     total energy              =     -23.05603172 Ry
     estimated scf accuracy    <          4.1E-09 Ry

     iteration #  4     ecut=    40.00 Ry     beta= 0.70
     CG style diagonalization
     ethr =  5.10E-11,  avg # of iterations =  3.9

     total cpu time spent up to now is       21.4 secs

     End of self-consistent calculation

          k = 0.0000 0.0000 0.0000 (   331 PWs)   bands (ev):

    -8.0715  13.5882  13.5897  13.7712

          k =-0.1660 0.1660-0.1680 (   319 PWs)   bands (ev):

    -7.2900   9.8450  12.5243  12.6710

          k =-0.3320 0.3320-0.3360 (   311 PWs)   bands (ev):

    -4.9898   4.1442  11.1733  11.3686

          k = 0.4980-0.4980 0.5040 (   324 PWs)   bands (ev):

    -2.0564  -0.0481  10.6711  10.8892

          k =-0.0000 0.3320 0.0000 (   311 PWs)   bands (ev):

    -7.0388  10.9856  11.0825  11.4060

          k =-0.1660 0.4980-0.1680 (   319 PWs)   bands (ev):

    -5.2530   6.3656   9.7452  10.1483

          k = 0.6640-0.3320 0.6720 (   318 PWs)   bands (ev):

    -2.1699   1.4396   8.5225   9.6337

          k = 0.4980-0.1660 0.5040 (   316 PWs)   bands (ev):

    -3.2561   2.9305   7.8213  10.6711

          k = 0.3320-0.0000 0.3360 (   317 PWs)   bands (ev):

    -5.9930   7.9098   8.6655  12.2940

          k =-0.0000 0.6640 0.0000 (   323 PWs)   bands (ev):

    -4.0031   6.4429   8.2202   8.2581

          k = 0.8300-0.1660 0.8401 (   320 PWs)   bands (ev):

    -1.3637   3.4017   5.7674   7.9116

          k = 0.6640-0.0000 0.6720 (   320 PWs)   bands (ev):

    -0.4100   2.6111   3.9297   8.8951

          k = 0.0000-0.9960 0.0000 (   322 PWs)   bands (ev):

     0.7611   0.7613   7.2335   7.2337

          k =-0.0000-0.0000 0.3360 (   315 PWs)   bands (ev):

    -7.0133  10.9221  10.9229  11.6115

          k =-0.3320 0.3320 0.0000 (   317 PWs)   bands (ev):

    -6.0182   7.9557   8.8043  12.1394

          k = 0.4980-0.4980 0.8401 (   317 PWs)   bands (ev):

    -3.3017   3.0126   7.9920  10.4924

          k = 0.3320-0.3320 0.6720 (   318 PWs)   bands (ev):

    -2.1097   1.3863   8.7328   9.4596

          k = 0.1660-0.1660 0.5040 (   319 PWs)   bands (ev):

    -5.2033   6.3090   9.6077  10.3237

          k = 0.6640-0.3320 1.0081 (   318 PWs)   bands (ev):

    -3.0439   4.9983   6.2387   8.6299

          k = 0.4980-0.1660 0.8401 (   317 PWs)   bands (ev):

    -0.2566   1.7498   5.7174   7.5328

          k = 0.3320-0.0000 0.6720 (   317 PWs)   bands (ev):

    -2.9503   4.9321   6.0557   8.8049

          k =-0.9960-0.3320-0.6720 (   316 PWs)   bands (ev):

    -3.0213   4.9241   6.1300   8.7044

          k =-0.3320-0.9960 0.0000 (   316 PWs)   bands (ev):

     1.3790   1.3793   5.6477   5.6479

          k =-0.8300-0.1660-0.5040 (   316 PWs)   bands (ev):

    -0.2800   1.7229   5.6449   7.5342

          k = 0.0000-0.9960 0.3360 (   316 PWs)   bands (ev):

     1.3784   1.3786   5.5925   5.5927

          k =-0.0000-0.0000 0.6720 (   322 PWs)   bands (ev):

    -3.9054   6.6898   8.0771   8.0777

          k = 0.3320-0.3320 1.0081 (   319 PWs)   bands (ev):

    -0.4619   2.7674   4.0657   8.7072

          k = 0.1660-0.1660 0.8401 (   316 PWs)   bands (ev):

    -1.2295   3.4963   5.7646   7.7321

          k =-0.6640-0.9960 0.0000 (   322 PWs)   bands (ev):

     1.5165   1.5169   5.5135   5.5140

          k = 0.0000 0.0000-1.0081 (   310 PWs)   bands (ev):

     0.9557   0.9561   7.0506   7.0511

          k = 0.1660 0.1660 0.1680 (   319 PWs)   bands (ev):

    -7.2900   9.8453  12.5230  12.6718

          k =-0.1660-0.1660 0.1680 (   319 PWs)   bands (ev):

    -7.2900   9.8457  12.5232  12.6712

          k = 0.3320 0.3320 0.3360 (   311 PWs)   bands (ev):

    -4.9898   4.1444  11.1722  11.3694

          k =-0.3320-0.3320 0.3360 (   311 PWs)   bands (ev):

    -4.9898   4.1446  11.1724  11.3690

          k =-0.4980-0.4980-0.5040 (   324 PWs)   bands (ev):

    -2.0565  -0.0479  10.6701  10.8900

          k = 0.4980 0.4980-0.5040 (   324 PWs)   bands (ev):

    -2.0566  -0.0476  10.6703  10.8896

          k = 0.1660 0.4980 0.1680 (   319 PWs)   bands (ev):

    -5.2530   6.3658   9.7450  10.1482

          k =-0.1660-0.4980 0.1680 (   319 PWs)   bands (ev):

    -5.2530   6.3661   9.7448  10.1480

          k = 0.4980-0.1660 0.1680 (   319 PWs)   bands (ev):

    -5.2530   6.3655   9.7448  10.1488

          k =-0.6640-0.3320-0.6720 (   318 PWs)   bands (ev):

    -2.1699   1.4397   8.5222   9.6339

          k = 0.6640 0.3320-0.6720 (   318 PWs)   bands (ev):

    -2.1700   1.4400   8.5222   9.6336

          k =-0.3320 0.6640-0.6720 (   318 PWs)   bands (ev):

    -2.1699   1.4395   8.5229   9.6333

          k =-0.4980-0.1660-0.5040 (   316 PWs)   bands (ev):

    -3.2561   2.9307   7.8211  10.6712

          k = 0.4980 0.1660-0.5040 (   316 PWs)   bands (ev):

    -3.2561   2.9309   7.8211  10.6708

          k =-0.1660 0.4980-0.5040 (   316 PWs)   bands (ev):

    -3.2561   2.9306   7.8216  10.6706

          k = 0.3320 0.0000-0.3360 (   317 PWs)   bands (ev):

    -5.9930   7.9102   8.6654  12.2935

          k =-0.8300-0.1660-0.8401 (   320 PWs)   bands (ev):

    -1.3637   3.4019   5.7672   7.9116

          k = 0.8300 0.1660-0.8401 (   320 PWs)   bands (ev):

    -1.3638   3.4020   5.7673   7.9114

          k =-0.1660 0.8300-0.8401 (   320 PWs)   bands (ev):

    -1.3637   3.4015   5.7678   7.9114

          k = 0.6640 0.0000-0.6720 (   320 PWs)   bands (ev):

    -0.4101   2.6113   3.9297   8.8948

          k = 0.3320 0.3320 0.0000 (   317 PWs)   bands (ev):

    -6.0182   7.9565   8.8043  12.1383

          k =-0.4980-0.4980-0.8401 (   317 PWs)   bands (ev):

    -3.3017   3.0128   7.9925  10.4915

          k = 0.4980 0.4980-0.8401 (   317 PWs)   bands (ev):

    -3.3017   3.0131   7.9922  10.4916

          k =-0.3320-0.3320-0.6720 (   318 PWs)   bands (ev):

    -2.1098   1.3864   8.7334   9.4589

          k = 0.3320 0.3320-0.6720 (   318 PWs)   bands (ev):

    -2.1098   1.3867   8.7330   9.4590

          k =-0.1660-0.1660-0.5040 (   319 PWs)   bands (ev):

    -5.2033   6.3091   9.6070  10.3244

          k = 0.1660 0.1660-0.5040 (   319 PWs)   bands (ev):

    -5.2033   6.3094   9.6071  10.3239

          k =-0.6640-0.3320-1.0081 (   318 PWs)   bands (ev):

    -3.0439   4.9989   6.2387   8.6292

          k =-0.4980-0.1660-0.8401 (   317 PWs)   bands (ev):

    -0.2567   1.7500   5.7178   7.5323

          k = 0.4980 0.1660-0.8401 (   317 PWs)   bands (ev):

    -0.2568   1.7505   5.7175   7.5322

          k =-0.1660 0.4980-0.8401 (   317 PWs)   bands (ev):

    -0.2566   1.7498   5.7177   7.5325

          k = 0.3320 0.0000-0.6720 (   317 PWs)   bands (ev):

    -2.9504   4.9324   6.0557   8.8046

          k = 0.9960-0.3320 0.6720 (   316 PWs)   bands (ev):

    -3.0213   4.9244   6.1300   8.7040

          k = 0.8300-0.1660 0.5040 (   316 PWs)   bands (ev):

    -0.2800   1.7227   5.6457   7.5336

          k =-0.1660-0.8300 0.5040 (   316 PWs)   bands (ev):

    -0.2802   1.7233   5.6451   7.5338

          k =-0.3320-0.3320-1.0081 (   319 PWs)   bands (ev):

    -0.4620   2.7679   4.0659   8.7066

          k =-0.1660-0.1660-0.8401 (   316 PWs)   bands (ev):

    -1.2295   3.4962   5.7652   7.7315

          k = 0.1660 0.1660-0.8401 (   316 PWs)   bands (ev):

    -1.2296   3.4965   5.7649   7.7315

     highest occupied level (ev):    13.7712

!    total energy              =     -23.05603172 Ry
     estimated scf accuracy    <          4.3E-11 Ry

     The total energy is the sum of the following terms:
     one-electron contribution =       8.28829196 Ry
     hartree contribution      =       1.88798348 Ry
     xc contribution           =      -7.39535966 Ry
     ewald contribution        =     -25.83694750 Ry

     convergence has been achieved in   4 iterations

     Forces acting on atoms (cartesian axes, Ry/au):

     atom    1 type  1   force =    -0.00003007   -0.00003007    0.00006926
     atom    2 type  1   force =     0.00003007    0.00003007   -0.00006926

     Total force =     0.000115     Total SCF correction =     0.000007


     Computing stress (Cartesian axis) and pressure

          total   stress  (Ry/bohr**3)                   (kbar)     P=        4.40
  -0.00022658  -0.00000009   0.00000003          -33.33       -0.01        0.01
  -0.00000009  -0.00022658   0.00000003           -0.01      -33.33        0.01
   0.00000003   0.00000003   0.00054287            0.01        0.01       79.86

     Energy error            =      3.7E-05 Ry
     Gradient error          =      6.9E-05 Ry/Bohr

     bfgs converged in   3 scf cycles and   2 bfgs steps
     (criteria: energy <  1.0E-04 Ry, force <  1.0E-03 Ry/Bohr)

     End of BFGS Geometry Optimization

     Final energy             =     -23.0560317161 Ry

     File ./Diamond.bfgs deleted, as requested
Begin final coordinates

ATOMIC_POSITIONS (alat)
C            -0.0004970576       -0.0004970576        0.0009933503
C             0.2504970576        0.2504970576        0.2490066497
End final coordinates



     Writing all to output data dir ./Diamond.save/
 
     init_run     :      0.75s CPU      0.79s WALL (       1 calls)
     electrons    :     16.09s CPU     19.41s WALL (       3 calls)
     update_pot   :      0.02s CPU      0.03s WALL (       2 calls)
     forces       :      0.13s CPU      0.14s WALL (       3 calls)
     stress       :      0.69s CPU      0.70s WALL (       3 calls)

     Called by init_run:
     wfcinit      :      0.45s CPU      0.47s WALL (       1 calls)
     potinit      :      0.00s CPU      0.01s WALL (       1 calls)
     hinit0       :      0.28s CPU      0.29s WALL (       1 calls)

     Called by electrons:
     c_bands      :     14.29s CPU     17.46s WALL (      15 calls)
     sum_band     :      1.69s CPU      1.77s WALL (      15 calls)
     v_of_rho     :      0.04s CPU      0.04s WALL (      17 calls)
     newd         :      0.06s CPU      0.07s WALL (      17 calls)
     mix_rho      :      0.01s CPU      0.01s WALL (      15 calls)

     Called by c_bands:
     init_us_2    :      0.50s CPU      0.60s WALL (    2516 calls)
     init_us_2:cp :      0.46s CPU      0.56s WALL (    2516 calls)
     ccgdiagg     :     11.35s CPU     12.63s WALL (    1020 calls)
     wfcrot       :      2.72s CPU      2.92s WALL (     816 calls)

     Called by *cgdiagg:
     h_psi        :     11.56s CPU     12.72s WALL (   14125 calls)
     s_psi        :      0.53s CPU      0.62s WALL (   27434 calls)

     Called by h_psi:
     h_psi:calbec :      0.49s CPU      0.54s WALL (   14125 calls)
     vloc_psi     :     10.23s CPU     11.24s WALL (   14125 calls)
     add_vuspsi   :      0.29s CPU      0.34s WALL (   14125 calls)
     hs_1psi      :     10.00s CPU     11.08s WALL (   13309 calls)
     s_1psi       :      0.89s CPU      1.00s WALL (   13309 calls)

     General routines
     calbec       :      0.61s CPU      0.70s WALL (   29474 calls)
     fft          :      0.04s CPU      0.05s WALL (      95 calls)
     ffts         :      0.00s CPU      0.00s WALL (      15 calls)
     fftw         :     10.45s CPU     11.43s WALL (   37770 calls)
 
     Parallel routines
 
     PWSCF        :     18.13s CPU     22.18s WALL

 
   This run was terminated on:  23:26: 2  14Mar2022            

=------------------------------------------------------------------------------=
   JOB DONE.
=------------------------------------------------------------------------------=
