
     Program PWSCF v.7.0 starts on 21Feb2022 at 17: 8:18 

     This program is part of the open-source Quantum ESPRESSO suite
     for quantum simulation of materials; please cite
         "P. Giannozzi et al., J. Phys.:Condens. Matter 21 395502 (2009);
         "P. Giannozzi et al., J. Phys.:Condens. Matter 29 465901 (2017);
         "P. Giannozzi et al., J. Chem. Phys. 152 154105 (2020);
          URL http://www.quantum-espresso.org", 
     in publications or presentations arising from this work. More details at
     http://www.quantum-espresso.org/quote

     Parallel version (MPI), running on     1 processors

     MPI processes distributed on     1 nodes
     86118 MiB available memory on the printing compute node when the environment starts
 
     Waiting for input...
     Reading input from standard input
Warning: card &CELL ignored
Warning: card  CELL_DYNAMICS = 'BFGS', ignored
Warning: card  PRESS=0.1D0, ignored
Warning: card / ignored

     Current dimensions of program PWSCF are:
     Max number of different atomic species (ntypx) = 10
     Max number of k-points (npk) =  40000
     Max angular momentum in pseudopotentials (lmaxx) =  4

     Subspace diagonalization in iterative solution of the eigenvalue problem:
     a serial algorithm will be used

 
     G-vector sticks info
     --------------------
     sticks:   dense  smooth     PW     G-vecs:    dense   smooth      PW
     Sum        1663     559    169                45143     8657    1471
 
     Using Slab Decomposition
 


     bravais-lattice index     =            2
     lattice parameter (alat)  =       9.0000  a.u.
     unit-cell volume          =     182.2500 (a.u.)^3
     number of atoms/cell      =            2
     number of atomic types    =            2
     number of electrons       =         8.00
     number of Kohn-Sham states=            4
     kinetic-energy cutoff     =      50.0000  Ry
     charge density cutoff     =     600.0000  Ry
     scf convergence threshold =      1.0E-08
     mixing beta               =       0.7000
     number of iterations used =            8  plain     mixing
     Exchange-correlation= SLA  PZ   NOGX NOGC
                           (   1   1   0   0   0   0   0)

     celldm(1)=   9.000000  celldm(2)=   0.000000  celldm(3)=   0.000000
     celldm(4)=   0.000000  celldm(5)=   0.000000  celldm(6)=   0.000000

     crystal axes: (cart. coord. in units of alat)
               a(1) = (  -0.500000   0.000000   0.500000 )  
               a(2) = (   0.000000   0.500000   0.500000 )  
               a(3) = (  -0.500000   0.500000   0.000000 )  

     reciprocal axes: (cart. coord. in units 2 pi/alat)
               b(1) = ( -1.000000 -1.000000  1.000000 )  
               b(2) = (  1.000000  1.000000  1.000000 )  
               b(3) = ( -1.000000  1.000000 -1.000000 )  


     PseudoPot. # 1 for B  read from file:
     ./pseudo_dir/B_LDA.UPF
     MD5 check sum: a9970de764dbc07c3a3d9583c605c3b2
     Pseudo is Ultrasoft + core correction, Zval =  3.0
     Generated by new atomic code, or converted to UPF format
     Using radial grid of  781 points,  4 beta functions with: 
                l(1) =   0
                l(2) =   0
                l(3) =   1
                l(4) =   1
     Q(r) pseudized with  8 coefficients,  rinner =    1.100   1.100   1.100


     PseudoPot. # 2 for As read from file:
     ./pseudo_dir/As_LDA.UPF
     MD5 check sum: 6d2e8cbe4ed9d0db7c6ef7a361cc050d
     Pseudo is Ultrasoft + core correction, Zval =  5.0
     Generated by new atomic code, or converted to UPF format
     Using radial grid of  875 points,  6 beta functions with: 
                l(1) =   0
                l(2) =   0
                l(3) =   1
                l(4) =   1
                l(5) =   2
                l(6) =   2
     Q(r) pseudized with  8 coefficients,  rinner =    1.300   1.300   1.300
                                                       1.300   1.300

     atomic species   valence    mass     pseudopotential
        B              3.00    10.81100     B ( 1.00)
        As             5.00    74.92160     As( 1.00)

     24 Sym. Ops. (no inversion) found



   Cartesian axes

     site n.     atom                  positions (alat units)
         1           B   tau(   1) = (   0.0000000   0.0000000   0.0000000  )
         2           As  tau(   2) = (  -0.2500000   0.2500000   0.2500000  )

     number of k points=    47
                       cart. coord. in units 2pi/alat
        k(    1) = (   0.0000000   0.0000000   0.0000000), wk =   0.0020000
        k(    2) = (  -0.1000000   0.1000000  -0.1000000), wk =   0.0160000
        k(    3) = (  -0.2000000   0.2000000  -0.2000000), wk =   0.0160000
        k(    4) = (  -0.3000000   0.3000000  -0.3000000), wk =   0.0160000
        k(    5) = (  -0.4000000   0.4000000  -0.4000000), wk =   0.0160000
        k(    6) = (   0.5000000  -0.5000000   0.5000000), wk =   0.0080000
        k(    7) = (   0.0000000   0.2000000   0.0000000), wk =   0.0120000
        k(    8) = (  -0.1000000   0.3000000  -0.1000000), wk =   0.0480000
        k(    9) = (  -0.2000000   0.4000000  -0.2000000), wk =   0.0480000
        k(   10) = (  -0.3000000   0.5000000  -0.3000000), wk =   0.0480000
        k(   11) = (   0.6000000  -0.4000000   0.6000000), wk =   0.0480000
        k(   12) = (   0.5000000  -0.3000000   0.5000000), wk =   0.0480000
        k(   13) = (   0.4000000  -0.2000000   0.4000000), wk =   0.0480000
        k(   14) = (   0.3000000  -0.1000000   0.3000000), wk =   0.0480000
        k(   15) = (   0.2000000   0.0000000   0.2000000), wk =   0.0240000
        k(   16) = (   0.0000000   0.4000000   0.0000000), wk =   0.0120000
        k(   17) = (  -0.1000000   0.5000000  -0.1000000), wk =   0.0480000
        k(   18) = (  -0.2000000   0.6000000  -0.2000000), wk =   0.0480000
        k(   19) = (   0.7000000  -0.3000000   0.7000000), wk =   0.0480000
        k(   20) = (   0.6000000  -0.2000000   0.6000000), wk =   0.0480000
        k(   21) = (   0.5000000  -0.1000000   0.5000000), wk =   0.0480000
        k(   22) = (   0.4000000   0.0000000   0.4000000), wk =   0.0240000
        k(   23) = (  -0.0000000   0.6000000  -0.0000000), wk =   0.0120000
        k(   24) = (  -0.1000000   0.7000000  -0.1000000), wk =   0.0480000
        k(   25) = (   0.8000000  -0.2000000   0.8000000), wk =   0.0480000
        k(   26) = (   0.7000000  -0.1000000   0.7000000), wk =   0.0480000
        k(   27) = (   0.6000000   0.0000000   0.6000000), wk =   0.0240000
        k(   28) = (   0.0000000   0.8000000   0.0000000), wk =   0.0120000
        k(   29) = (   0.9000000  -0.1000000   0.9000000), wk =   0.0480000
        k(   30) = (   0.8000000   0.0000000   0.8000000), wk =   0.0240000
        k(   31) = (   0.0000000  -1.0000000   0.0000000), wk =   0.0060000
        k(   32) = (  -0.2000000   0.4000000   0.0000000), wk =   0.0480000
        k(   33) = (  -0.3000000   0.5000000  -0.1000000), wk =   0.0960000
        k(   34) = (   0.6000000  -0.4000000   0.8000000), wk =   0.0960000
        k(   35) = (   0.5000000  -0.3000000   0.7000000), wk =   0.0480000
        k(   36) = (  -0.2000000   0.6000000   0.0000000), wk =   0.0480000
        k(   37) = (   0.7000000  -0.3000000   0.9000000), wk =   0.0960000
        k(   38) = (   0.6000000  -0.2000000   0.8000000), wk =   0.0960000
        k(   39) = (   0.5000000  -0.1000000   0.7000000), wk =   0.0960000
        k(   40) = (   0.4000000   0.0000000   0.6000000), wk =   0.0480000
        k(   41) = (   0.8000000  -0.2000000   1.0000000), wk =   0.0480000
        k(   42) = (   0.7000000  -0.1000000   0.9000000), wk =   0.0960000
        k(   43) = (   0.6000000   0.0000000   0.8000000), wk =   0.0480000
        k(   44) = (  -0.2000000  -1.0000000  -0.0000000), wk =   0.0240000
        k(   45) = (   0.6000000  -0.2000000   1.0000000), wk =   0.0480000
        k(   46) = (   0.5000000  -0.1000000   0.9000000), wk =   0.0480000
        k(   47) = (  -0.4000000  -1.0000000  -0.0000000), wk =   0.0240000

     Dense  grid:    45143 G-vectors     FFT dimensions: (  50,  50,  50)

     Smooth grid:     8657 G-vectors     FFT dimensions: (  30,  30,  30)

     Estimated max dynamical RAM per process >     174.46 MB

     Initial potential from superposition of free atoms

     starting charge       7.9996, renormalised to       8.0000
     Starting wfcs are    8 randomized atomic wfcs

     total cpu time spent up to now is        4.3 secs

     Self-consistent Calculation

     iteration #  1     ecut=    50.00 Ry     beta= 0.70
     CG style diagonalization
     ethr =  1.00E-02,  avg # of iterations =  2.6

     total cpu time spent up to now is        6.4 secs

     total energy              =     -46.15117102 Ry
     estimated scf accuracy    <       0.14483762 Ry

     iteration #  2     ecut=    50.00 Ry     beta= 0.70
     CG style diagonalization
     ethr =  1.81E-03,  avg # of iterations =  4.2

     total cpu time spent up to now is        9.0 secs

     total energy              =     -46.18390921 Ry
     estimated scf accuracy    <       0.03701704 Ry

     iteration #  3     ecut=    50.00 Ry     beta= 0.70
     CG style diagonalization
     ethr =  4.63E-04,  avg # of iterations =  4.1

     total cpu time spent up to now is       11.6 secs

     total energy              =     -46.19212833 Ry
     estimated scf accuracy    <       0.00038782 Ry

     iteration #  4     ecut=    50.00 Ry     beta= 0.70
     CG style diagonalization
     ethr =  4.85E-06,  avg # of iterations =  4.7

     total cpu time spent up to now is       14.5 secs

     total energy              =     -46.19241442 Ry
     estimated scf accuracy    <       0.00008200 Ry

     iteration #  5     ecut=    50.00 Ry     beta= 0.70
     CG style diagonalization
     ethr =  1.02E-06,  avg # of iterations =  4.1

     total cpu time spent up to now is       17.0 secs

     total energy              =     -46.19243531 Ry
     estimated scf accuracy    <       0.00000269 Ry

     iteration #  6     ecut=    50.00 Ry     beta= 0.70
     CG style diagonalization
     ethr =  3.36E-08,  avg # of iterations =  5.6

     total cpu time spent up to now is       20.2 secs

     total energy              =     -46.19243833 Ry
     estimated scf accuracy    <       0.00000041 Ry

     iteration #  7     ecut=    50.00 Ry     beta= 0.70
     CG style diagonalization
     ethr =  5.09E-09,  avg # of iterations =  4.8

     total cpu time spent up to now is       23.1 secs

     total energy              =     -46.19243850 Ry
     estimated scf accuracy    <       0.00000029 Ry

     iteration #  8     ecut=    50.00 Ry     beta= 0.70
     CG style diagonalization
     ethr =  3.65E-09,  avg # of iterations =  4.2

     total cpu time spent up to now is       25.8 secs

     total energy              =     -46.19243860 Ry
     estimated scf accuracy    <       0.00000003 Ry

     iteration #  9     ecut=    50.00 Ry     beta= 0.70
     CG style diagonalization
     ethr =  3.35E-10,  avg # of iterations =  4.2

     total cpu time spent up to now is       28.4 secs

     End of self-consistent calculation

          k = 0.0000 0.0000 0.0000 (  1067 PWs)   bands (ev):

    -6.9878   8.4895   8.4895   8.4895

          k =-0.1000 0.1000-0.1000 (  1085 PWs)   bands (ev):

    -6.8228   7.0925   8.1855   8.1855

          k =-0.2000 0.2000-0.2000 (  1089 PWs)   bands (ev):

    -6.3365   4.7162   7.6085   7.6085

          k =-0.3000 0.3000-0.3000 (  1089 PWs)   bands (ev):

    -5.5655   2.4131   7.1000   7.1000

          k =-0.4000 0.4000-0.4000 (  1095 PWs)   bands (ev):

    -4.6440   0.5294   6.7745   6.7745

          k = 0.5000-0.5000 0.5000 (  1068 PWs)   bands (ev):

    -4.1067  -0.3341   6.6639   6.6639

          k = 0.0000 0.2000 0.0000 (  1078 PWs)   bands (ev):

    -6.7677   7.5100   7.6472   7.6472

          k =-0.1000 0.3000-0.1000 (  1094 PWs)   bands (ev):

    -6.3876   5.4893   7.0136   7.3792

          k =-0.2000 0.4000-0.2000 (  1090 PWs)   bands (ev):

    -5.7072   3.2036   6.5385   6.7912

          k =-0.3000 0.5000-0.3000 (  1089 PWs)   bands (ev):

    -4.8126   1.1834   6.2216   6.3059

          k = 0.6000-0.4000 0.6000 (  1094 PWs)   bands (ev):

    -4.0501  -0.1058   5.8146   6.3342

          k = 0.5000-0.3000 0.5000 (  1088 PWs)   bands (ev):

    -4.2439   0.1963   5.6310   6.6092

          k = 0.4000-0.2000 0.4000 (  1087 PWs)   bands (ev):

    -5.1253   1.8131   5.7054   7.0900

          k = 0.3000-0.1000 0.3000 (  1081 PWs)   bands (ev):

    -5.9658   3.9474   6.0632   7.6889

          k = 0.2000 0.0000 0.2000 (  1081 PWs)   bands (ev):

    -6.5504   6.0413   6.8508   8.1897

          k = 0.0000 0.4000 0.0000 (  1086 PWs)   bands (ev):

    -6.1159   5.5195   6.3391   6.3391

          k =-0.1000 0.5000-0.1000 (  1079 PWs)   bands (ev):

    -5.5377   3.8374   5.7613   5.8350

          k =-0.2000 0.6000-0.2000 (  1078 PWs)   bands (ev):

    -4.7121   1.9516   4.9939   5.5939

          k = 0.7000-0.3000 0.7000 (  1088 PWs)   bands (ev):

    -3.8601   0.4779   4.3293   5.6420

          k = 0.6000-0.2000 0.6000 (  1090 PWs)   bands (ev):

    -3.6904   0.2338   3.9137   5.9687

          k = 0.5000-0.1000 0.5000 (  1096 PWs)   bands (ev):

    -4.4315   1.4397   3.8369   6.5253

          k = 0.4000 0.0000 0.4000 (  1083 PWs)   bands (ev):

    -5.3016   3.0179   4.3794   7.1922

          k =-0.0000 0.6000-0.0000 (  1086 PWs)   bands (ev):

    -5.0664   3.3045   5.2769   5.2769

          k =-0.1000 0.7000-0.1000 (  1080 PWs)   bands (ev):

    -4.3388   2.0587   4.4784   4.9792

          k = 0.8000-0.2000 0.8000 (  1092 PWs)   bands (ev):

    -3.5139   0.9038   3.4035   4.9802

          k = 0.7000-0.1000 0.7000 (  1097 PWs)   bands (ev):

    -3.1168   0.4595   2.6405   5.2777

          k = 0.6000 0.0000 0.6000 (  1097 PWs)   bands (ev):

    -3.6180   1.0174   2.5922   5.8304

          k = 0.0000 0.8000 0.0000 (  1082 PWs)   bands (ev):

    -3.7365   1.2017   4.6090   4.6090

          k = 0.9000-0.1000 0.9000 (  1088 PWs)   bands (ev):

    -3.0710   0.4155   3.8579   4.5365

          k = 0.8000 0.0000 0.8000 (  1103 PWs)   bands (ev):

    -2.7860   0.2791   2.7912   4.7694

          k = 0.0000-1.0000 0.0000 (  1106 PWs)   bands (ev):

    -2.8196   0.0133   4.3824   4.3824

          k =-0.2000 0.4000 0.0000 (  1074 PWs)   bands (ev):

    -5.9084   4.4079   5.5900   7.1062

          k =-0.3000 0.5000-0.1000 (  1086 PWs)   bands (ev):

    -5.1510   2.5723   4.8727   6.5512

          k = 0.6000-0.4000 0.8000 (  1089 PWs)   bands (ev):

    -4.2519   0.8328   4.6263   6.0308

          k = 0.5000-0.3000 0.7000 (  1092 PWs)   bands (ev):

    -3.7336   0.0185   4.5733   5.8195

          k =-0.2000 0.6000 0.0000 (  1072 PWs)   bands (ev):

    -4.8817   2.7902   4.5767   5.5264

          k = 0.7000-0.3000 0.9000 (  1080 PWs)   bands (ev):

    -4.0353   1.4358   3.8164   5.0501

          k = 0.6000-0.2000 0.8000 (  1094 PWs)   bands (ev):

    -3.3472   0.4491   3.3083   4.9650

          k = 0.5000-0.1000 0.7000 (  1090 PWs)   bands (ev):

    -3.5421   0.7361   3.0690   5.3078

          k = 0.4000 0.0000 0.6000 (  1091 PWs)   bands (ev):

    -4.3588   1.8311   3.4301   5.9261

          k = 0.8000-0.2000 1.0000 (  1084 PWs)   bands (ev):

    -3.6048   1.1442   3.9778   4.3739

          k = 0.7000-0.1000 0.9000 (  1092 PWs)   bands (ev):

    -2.9512   0.5134   3.0103   4.2662

          k = 0.6000 0.0000 0.8000 (  1088 PWs)   bands (ev):

    -2.9381   0.5691   2.4142   4.6444

          k =-0.2000-1.0000-0.0000 (  1094 PWs)   bands (ev):

    -2.7645   0.1545   3.8476   3.9162

          k = 0.6000-0.2000 1.0000 (  1091 PWs)   bands (ev):

    -3.2736   0.9046   2.9599   4.2776

          k = 0.5000-0.1000 0.9000 (  1088 PWs)   bands (ev):

    -2.8699   0.5581   2.7215   3.9316

          k =-0.4000-1.0000-0.0000 (  1088 PWs)   bands (ev):

    -2.6697   0.4468   3.0646   3.3115

     highest occupied level (ev):     8.4895

!    total energy              =     -46.19243860 Ry
     estimated scf accuracy    <          2.7E-10 Ry

     The total energy is the sum of the following terms:
     one-electron contribution =       6.71253402 Ry
     hartree contribution      =       1.23862467 Ry
     xc contribution           =     -34.14988734 Ry
     ewald contribution        =     -19.99370996 Ry

     convergence has been achieved in   9 iterations

     Forces acting on atoms (cartesian axes, Ry/au):

     atom    1 type  1   force =    -0.00000000   -0.00000000    0.00000000
     atom    2 type  2   force =     0.00000000    0.00000000    0.00000000

     Total force =     0.000000     Total SCF correction =     0.000000


     Computing stress (Cartesian axis) and pressure

          total   stress  (Ry/bohr**3)                   (kbar)     P=      -13.87
  -0.00009429   0.00000000   0.00000000          -13.87        0.00        0.00
   0.00000000  -0.00009429   0.00000000            0.00      -13.87        0.00
   0.00000000  -0.00000000  -0.00009429            0.00       -0.00      -13.87


     Writing all to output data dir ./k10.save/
 
     init_run     :      2.71s CPU      3.00s WALL (       1 calls)
     electrons    :     22.48s CPU     24.14s WALL (       1 calls)
     forces       :      0.46s CPU      0.51s WALL (       1 calls)
     stress       :      3.77s CPU      3.90s WALL (       1 calls)

     Called by init_run:
     wfcinit      :      0.76s CPU      0.84s WALL (       1 calls)
     potinit      :      0.05s CPU      0.07s WALL (       1 calls)
     hinit0       :      1.57s CPU      1.67s WALL (       1 calls)

     Called by electrons:
     c_bands      :     15.28s CPU     16.22s WALL (       9 calls)
     sum_band     :      4.72s CPU      5.07s WALL (       9 calls)
     v_of_rho     :      0.32s CPU      0.33s WALL (      10 calls)
     newd         :      2.26s CPU      2.59s WALL (      10 calls)
     mix_rho      :      0.08s CPU      0.09s WALL (       9 calls)

     Called by c_bands:
     init_us_2    :      1.32s CPU      1.41s WALL (     987 calls)
     init_us_2:cp :      1.30s CPU      1.39s WALL (     987 calls)
     ccgdiagg     :     12.02s CPU     12.76s WALL (     423 calls)
     wfcrot       :      3.20s CPU      3.36s WALL (     423 calls)

     Called by *cgdiagg:
     h_psi        :     12.78s CPU     13.43s WALL (    6147 calls)
     s_psi        :      0.81s CPU      0.89s WALL (   11871 calls)

     Called by h_psi:
     h_psi:calbec :      0.79s CPU      0.85s WALL (    6147 calls)
     vloc_psi     :     11.14s CPU     11.67s WALL (    6147 calls)
     add_vuspsi   :      0.52s CPU      0.56s WALL (    6147 calls)
     hs_1psi      :     10.57s CPU     11.16s WALL (    5724 calls)
     s_1psi       :      0.98s CPU      1.06s WALL (    5724 calls)

     General routines
     calbec       :      1.17s CPU      1.29s WALL (   12529 calls)
     fft          :      0.19s CPU      0.22s WALL (      66 calls)
     ffts         :      0.02s CPU      0.02s WALL (      19 calls)
     fftw         :     10.80s CPU     11.30s WALL (   16900 calls)
     interpolate  :      0.05s CPU      0.05s WALL (      10 calls)
 
     Parallel routines
 
     PWSCF        :     30.27s CPU     33.61s WALL

 
   This run was terminated on:  17: 8:51  21Feb2022            

=------------------------------------------------------------------------------=
   JOB DONE.
=------------------------------------------------------------------------------=
