
     Program PWSCF v.7.0 starts on 21Feb2022 at 17: 9:10 

     This program is part of the open-source Quantum ESPRESSO suite
     for quantum simulation of materials; please cite
         "P. Giannozzi et al., J. Phys.:Condens. Matter 21 395502 (2009);
         "P. Giannozzi et al., J. Phys.:Condens. Matter 29 465901 (2017);
         "P. Giannozzi et al., J. Chem. Phys. 152 154105 (2020);
          URL http://www.quantum-espresso.org", 
     in publications or presentations arising from this work. More details at
     http://www.quantum-espresso.org/quote

     Parallel version (MPI), running on     1 processors

     MPI processes distributed on     1 nodes
     89444 MiB available memory on the printing compute node when the environment starts
 
     Waiting for input...
     Reading input from standard input
Warning: card &CELL ignored
Warning: card  CELL_DYNAMICS = 'BFGS', ignored
Warning: card  PRESS=0.1D0, ignored
Warning: card / ignored

     Current dimensions of program PWSCF are:
     Max number of different atomic species (ntypx) = 10
     Max number of k-points (npk) =  40000
     Max angular momentum in pseudopotentials (lmaxx) =  4

     Subspace diagonalization in iterative solution of the eigenvalue problem:
     a serial algorithm will be used

 
     G-vector sticks info
     --------------------
     sticks:   dense  smooth     PW     G-vecs:    dense   smooth      PW
     Sum        1663     559    169                45143     8657    1471
 
     Using Slab Decomposition
 


     bravais-lattice index     =            2
     lattice parameter (alat)  =       9.0000  a.u.
     unit-cell volume          =     182.2500 (a.u.)^3
     number of atoms/cell      =            2
     number of atomic types    =            2
     number of electrons       =         8.00
     number of Kohn-Sham states=            4
     kinetic-energy cutoff     =      50.0000  Ry
     charge density cutoff     =     600.0000  Ry
     scf convergence threshold =      1.0E-08
     mixing beta               =       0.7000
     number of iterations used =            8  plain     mixing
     Exchange-correlation= SLA  PZ   NOGX NOGC
                           (   1   1   0   0   0   0   0)

     celldm(1)=   9.000000  celldm(2)=   0.000000  celldm(3)=   0.000000
     celldm(4)=   0.000000  celldm(5)=   0.000000  celldm(6)=   0.000000

     crystal axes: (cart. coord. in units of alat)
               a(1) = (  -0.500000   0.000000   0.500000 )  
               a(2) = (   0.000000   0.500000   0.500000 )  
               a(3) = (  -0.500000   0.500000   0.000000 )  

     reciprocal axes: (cart. coord. in units 2 pi/alat)
               b(1) = ( -1.000000 -1.000000  1.000000 )  
               b(2) = (  1.000000  1.000000  1.000000 )  
               b(3) = ( -1.000000  1.000000 -1.000000 )  


     PseudoPot. # 1 for B  read from file:
     ./pseudo_dir/B_LDA.UPF
     MD5 check sum: a9970de764dbc07c3a3d9583c605c3b2
     Pseudo is Ultrasoft + core correction, Zval =  3.0
     Generated by new atomic code, or converted to UPF format
     Using radial grid of  781 points,  4 beta functions with: 
                l(1) =   0
                l(2) =   0
                l(3) =   1
                l(4) =   1
     Q(r) pseudized with  8 coefficients,  rinner =    1.100   1.100   1.100


     PseudoPot. # 2 for As read from file:
     ./pseudo_dir/As_LDA.UPF
     MD5 check sum: 6d2e8cbe4ed9d0db7c6ef7a361cc050d
     Pseudo is Ultrasoft + core correction, Zval =  5.0
     Generated by new atomic code, or converted to UPF format
     Using radial grid of  875 points,  6 beta functions with: 
                l(1) =   0
                l(2) =   0
                l(3) =   1
                l(4) =   1
                l(5) =   2
                l(6) =   2
     Q(r) pseudized with  8 coefficients,  rinner =    1.300   1.300   1.300
                                                       1.300   1.300

     atomic species   valence    mass     pseudopotential
        B              3.00    10.81100     B ( 1.00)
        As             5.00    74.92160     As( 1.00)

     24 Sym. Ops. (no inversion) found



   Cartesian axes

     site n.     atom                  positions (alat units)
         1           B   tau(   1) = (   0.0000000   0.0000000   0.0000000  )
         2           As  tau(   2) = (  -0.2500000   0.2500000   0.2500000  )

     number of k points=    56
                       cart. coord. in units 2pi/alat
        k(    1) = (   0.0000000   0.0000000   0.0000000), wk =   0.0015026
        k(    2) = (  -0.0909091   0.0909091  -0.0909091), wk =   0.0120210
        k(    3) = (  -0.1818182   0.1818182  -0.1818182), wk =   0.0120210
        k(    4) = (  -0.2727273   0.2727273  -0.2727273), wk =   0.0120210
        k(    5) = (  -0.3636364   0.3636364  -0.3636364), wk =   0.0120210
        k(    6) = (  -0.4545455   0.4545455  -0.4545455), wk =   0.0120210
        k(    7) = (   0.0000000   0.1818182   0.0000000), wk =   0.0090158
        k(    8) = (  -0.0909091   0.2727273  -0.0909091), wk =   0.0360631
        k(    9) = (  -0.1818182   0.3636364  -0.1818182), wk =   0.0360631
        k(   10) = (  -0.2727273   0.4545455  -0.2727273), wk =   0.0360631
        k(   11) = (  -0.3636364   0.5454545  -0.3636364), wk =   0.0360631
        k(   12) = (   0.5454545  -0.3636364   0.5454545), wk =   0.0360631
        k(   13) = (   0.4545455  -0.2727273   0.4545455), wk =   0.0360631
        k(   14) = (   0.3636364  -0.1818182   0.3636364), wk =   0.0360631
        k(   15) = (   0.2727273  -0.0909091   0.2727273), wk =   0.0360631
        k(   16) = (   0.1818182   0.0000000   0.1818182), wk =   0.0180316
        k(   17) = (   0.0000000   0.3636364   0.0000000), wk =   0.0090158
        k(   18) = (  -0.0909091   0.4545455  -0.0909091), wk =   0.0360631
        k(   19) = (  -0.1818182   0.5454545  -0.1818182), wk =   0.0360631
        k(   20) = (  -0.2727273   0.6363636  -0.2727273), wk =   0.0360631
        k(   21) = (   0.6363636  -0.2727273   0.6363636), wk =   0.0360631
        k(   22) = (   0.5454545  -0.1818182   0.5454545), wk =   0.0360631
        k(   23) = (   0.4545455  -0.0909091   0.4545455), wk =   0.0360631
        k(   24) = (   0.3636364   0.0000000   0.3636364), wk =   0.0180316
        k(   25) = (   0.0000000   0.5454545   0.0000000), wk =   0.0090158
        k(   26) = (  -0.0909091   0.6363636  -0.0909091), wk =   0.0360631
        k(   27) = (  -0.1818182   0.7272727  -0.1818182), wk =   0.0360631
        k(   28) = (   0.7272727  -0.1818182   0.7272727), wk =   0.0360631
        k(   29) = (   0.6363636  -0.0909091   0.6363636), wk =   0.0360631
        k(   30) = (   0.5454545   0.0000000   0.5454545), wk =   0.0180316
        k(   31) = (   0.0000000   0.7272727   0.0000000), wk =   0.0090158
        k(   32) = (  -0.0909091   0.8181818  -0.0909091), wk =   0.0360631
        k(   33) = (   0.8181818  -0.0909091   0.8181818), wk =   0.0360631
        k(   34) = (   0.7272727   0.0000000   0.7272727), wk =   0.0180316
        k(   35) = (  -0.0000000   0.9090909  -0.0000000), wk =   0.0090158
        k(   36) = (   0.9090909  -0.0000000   0.9090909), wk =   0.0180316
        k(   37) = (  -0.1818182   0.3636364   0.0000000), wk =   0.0360631
        k(   38) = (  -0.2727273   0.4545455  -0.0909091), wk =   0.0721262
        k(   39) = (  -0.3636364   0.5454545  -0.1818182), wk =   0.0721262
        k(   40) = (   0.5454545  -0.3636364   0.7272727), wk =   0.0721262
        k(   41) = (  -0.1818182   0.5454545   0.0000000), wk =   0.0360631
        k(   42) = (  -0.2727273   0.6363636  -0.0909091), wk =   0.0721262
        k(   43) = (   0.6363636  -0.2727273   0.8181818), wk =   0.0721262
        k(   44) = (   0.5454545  -0.1818182   0.7272727), wk =   0.0721262
        k(   45) = (   0.4545455  -0.0909091   0.6363636), wk =   0.0721262
        k(   46) = (   0.3636364   0.0000000   0.5454545), wk =   0.0360631
        k(   47) = (  -0.1818182   0.7272727   0.0000000), wk =   0.0360631
        k(   48) = (   0.7272727  -0.1818182   0.9090909), wk =   0.0721262
        k(   49) = (   0.6363636  -0.0909091   0.8181818), wk =   0.0721262
        k(   50) = (   0.5454545   0.0000000   0.7272727), wk =   0.0360631
        k(   51) = (   0.8181818  -0.0909091   1.0000000), wk =   0.0360631
        k(   52) = (   0.7272727   0.0000000   0.9090909), wk =   0.0360631
        k(   53) = (   0.6363636  -0.2727273   1.0000000), wk =   0.0360631
        k(   54) = (   0.5454545  -0.1818182   0.9090909), wk =   0.0721262
        k(   55) = (   0.6363636  -0.0909091   1.0000000), wk =   0.0360631
        k(   56) = (   0.5454545   0.0000000   0.9090909), wk =   0.0360631

     Dense  grid:    45143 G-vectors     FFT dimensions: (  50,  50,  50)

     Smooth grid:     8657 G-vectors     FFT dimensions: (  30,  30,  30)

     Estimated max dynamical RAM per process >     175.05 MB

     Initial potential from superposition of free atoms

     starting charge       7.9996, renormalised to       8.0000
     Starting wfcs are    8 randomized atomic wfcs

     total cpu time spent up to now is        4.5 secs

     Self-consistent Calculation

     iteration #  1     ecut=    50.00 Ry     beta= 0.70
     CG style diagonalization
     ethr =  1.00E-02,  avg # of iterations =  2.7

     total cpu time spent up to now is        7.0 secs

     total energy              =     -46.15094666 Ry
     estimated scf accuracy    <       0.14575972 Ry

     iteration #  2     ecut=    50.00 Ry     beta= 0.70
     CG style diagonalization
     ethr =  1.82E-03,  avg # of iterations =  4.2

     total cpu time spent up to now is       10.1 secs

     total energy              =     -46.18393669 Ry
     estimated scf accuracy    <       0.03721613 Ry

     iteration #  3     ecut=    50.00 Ry     beta= 0.70
     CG style diagonalization
     ethr =  4.65E-04,  avg # of iterations =  4.1

     total cpu time spent up to now is       13.2 secs

     total energy              =     -46.19214613 Ry
     estimated scf accuracy    <       0.00037784 Ry

     iteration #  4     ecut=    50.00 Ry     beta= 0.70
     CG style diagonalization
     ethr =  4.72E-06,  avg # of iterations =  4.7

     total cpu time spent up to now is       16.7 secs

     total energy              =     -46.19243066 Ry
     estimated scf accuracy    <       0.00008787 Ry

     iteration #  5     ecut=    50.00 Ry     beta= 0.70
     CG style diagonalization
     ethr =  1.10E-06,  avg # of iterations =  4.1

     total cpu time spent up to now is       19.7 secs

     total energy              =     -46.19245325 Ry
     estimated scf accuracy    <       0.00000390 Ry

     iteration #  6     ecut=    50.00 Ry     beta= 0.70
     CG style diagonalization
     ethr =  4.87E-08,  avg # of iterations =  5.2

     total cpu time spent up to now is       23.4 secs

     total energy              =     -46.19245655 Ry
     estimated scf accuracy    <       0.00000048 Ry

     iteration #  7     ecut=    50.00 Ry     beta= 0.70
     CG style diagonalization
     ethr =  6.06E-09,  avg # of iterations =  5.1

     total cpu time spent up to now is       27.0 secs

     total energy              =     -46.19245679 Ry
     estimated scf accuracy    <       0.00000039 Ry

     iteration #  8     ecut=    50.00 Ry     beta= 0.70
     CG style diagonalization
     ethr =  4.83E-09,  avg # of iterations =  4.2

     total cpu time spent up to now is       30.2 secs

     total energy              =     -46.19245692 Ry
     estimated scf accuracy    <       0.00000005 Ry

     iteration #  9     ecut=    50.00 Ry     beta= 0.70
     CG style diagonalization
     ethr =  6.58E-10,  avg # of iterations =  4.0

     total cpu time spent up to now is       33.2 secs

     End of self-consistent calculation

          k = 0.0000 0.0000 0.0000 (  1067 PWs)   bands (ev):

    -6.9878   8.4893   8.4893   8.4893

          k =-0.0909 0.0909-0.0909 (  1091 PWs)   bands (ev):

    -6.8514   7.2905   8.2319   8.2319

          k =-0.1818 0.1818-0.1818 (  1086 PWs)   bands (ev):

    -6.4479   5.1556   7.7141   7.7141

          k =-0.2727 0.2727-0.2727 (  1083 PWs)   bands (ev):

    -5.7997   3.0131   7.2229   7.2229

          k =-0.3636 0.3636-0.3636 (  1089 PWs)   bands (ev):

    -4.9778   1.1415   6.8687   6.8687

          k =-0.4545 0.4545-0.4545 (  1086 PWs)   bands (ev):

    -4.2379  -0.1355   6.6867   6.6867

          k = 0.0000 0.1818 0.0000 (  1082 PWs)   bands (ev):

    -6.8059   7.6604   7.7640   7.7640

          k =-0.0909 0.2727-0.0909 (  1078 PWs)   bands (ev):

    -6.4908   5.8475   7.1838   7.5544

          k =-0.1818 0.3636-0.1818 (  1088 PWs)   bands (ev):

    -5.9219   3.7413   6.7093   7.0416

          k =-0.2727 0.4545-0.2727 (  1089 PWs)   bands (ev):

    -5.1473   1.7923   6.4217   6.5092

          k =-0.3636 0.5455-0.3636 (  1095 PWs)   bands (ev):

    -4.3324   0.2815   6.0894   6.3453

          k = 0.5455-0.3636 0.5455 (  1086 PWs)   bands (ev):

    -4.0166  -0.2096   5.8370   6.4780

          k = 0.4545-0.2727 0.4545 (  1093 PWs)   bands (ev):

    -4.5882   0.7156   5.7825   6.8004

          k = 0.3636-0.1818 0.3636 (  1095 PWs)   bands (ev):

    -5.4239   2.4140   5.9442   7.2736

          k = 0.2727-0.0909 0.2727 (  1083 PWs)   bands (ev):

    -6.1388   4.4294   6.3362   7.8179

          k = 0.1818 0.0000 0.1818 (  1077 PWs)   bands (ev):

    -6.6257   6.3395   7.0753   8.2445

          k = 0.0000 0.3636 0.0000 (  1074 PWs)   bands (ev):

    -6.2656   5.9100   6.5665   6.5665

          k =-0.0909 0.4545-0.0909 (  1078 PWs)   bands (ev):

    -5.7827   4.3258   6.0689   6.1102

          k =-0.1818 0.5455-0.1818 (  1081 PWs)   bands (ev):

    -5.0767   2.5066   5.4638   5.7754

          k =-0.2727 0.6364-0.2727 (  1091 PWs)   bands (ev):

    -4.2580   0.9248   4.8440   5.7153

          k = 0.6364-0.2727 0.6364 (  1090 PWs)   bands (ev):

    -3.7105   0.0680   4.3868   5.8897

          k = 0.5455-0.1818 0.5455 (  1087 PWs)   bands (ev):

    -4.0255   0.5562   4.1561   6.2773

          k = 0.4545-0.0909 0.4545 (  1092 PWs)   bands (ev):

    -4.8213   1.9689   4.2145   6.8257

          k = 0.3636 0.0000 0.3636 (  1081 PWs)   bands (ev):

    -5.5802   3.5101   4.8013   7.4204

          k = 0.0000 0.5455 0.0000 (  1094 PWs)   bands (ev):

    -5.3883   3.9111   5.5306   5.5306

          k =-0.0909 0.6364-0.0909 (  1079 PWs)   bands (ev):

    -4.7653   2.6892   4.8535   5.1945

          k =-0.1818 0.7273-0.1818 (  1084 PWs)   bands (ev):

    -3.9947   1.4052   3.9375   5.0986

          k = 0.7273-0.1818 0.7273 (  1092 PWs)   bands (ev):

    -3.3454   0.4987   3.1846   5.2502

          k = 0.6364-0.0909 0.6364 (  1091 PWs)   bands (ev):

    -3.3902   0.5942   2.7696   5.6327

          k = 0.5455 0.0000 0.5455 (  1099 PWs)   bands (ev):

    -4.0661   1.4261   2.9624   6.1964

          k = 0.0000 0.7273 0.0000 (  1090 PWs)   bands (ev):

    -4.2355   1.9281   4.8022   4.8022

          k =-0.0909 0.8182-0.0909 (  1086 PWs)   bands (ev):

    -3.5624   1.0176   4.1106   4.6485

          k = 0.8182-0.0909 0.8182 (  1099 PWs)   bands (ev):

    -2.9734   0.4293   3.0615   4.7476

          k = 0.7273 0.0000 0.7273 (  1105 PWs)   bands (ev):

    -2.9092   0.4650   2.3663   5.0893

          k =-0.0000 0.9091-0.0000 (  1094 PWs)   bands (ev):

    -3.0670   0.3172   4.4293   4.4293

          k = 0.9091-0.0000 0.9091 (  1092 PWs)   bands (ev):

    -2.7978   0.0737   3.8717   4.4635

          k =-0.1818 0.3636 0.0000 (  1084 PWs)   bands (ev):

    -6.0919   4.8370   5.9169   7.3192

          k =-0.2727 0.4545-0.0909 (  1088 PWs)   bands (ev):

    -5.4524   3.1087   5.2216   6.8402

          k =-0.3636 0.5455-0.1818 (  1087 PWs)   bands (ev):

    -4.6448   1.3683   4.9332   6.3277

          k = 0.5455-0.3636 0.7273 (  1094 PWs)   bands (ev):

    -3.9232   0.1507   4.8364   6.0043

          k =-0.1818 0.5455 0.0000 (  1082 PWs)   bands (ev):

    -5.2286   3.3310   4.9188   5.8875

          k =-0.2727 0.6364-0.0909 (  1082 PWs)   bands (ev):

    -4.4821   1.9544   4.2214   5.4258

          k = 0.6364-0.2727 0.8182 (  1088 PWs)   bands (ev):

    -3.7138   0.7084   3.7734   5.1852

          k = 0.5455-0.1818 0.7273 (  1089 PWs)   bands (ev):

    -3.4344   0.3143   3.4636   5.3119

          k = 0.4545-0.0909 0.6364 (  1091 PWs)   bands (ev):

    -3.9735   1.1210   3.3949   5.7347

          k = 0.3636 0.0000 0.5455 (  1084 PWs)   bands (ev):

    -4.7666   2.3261   3.8501   6.3225

          k =-0.1818 0.7273 0.0000 (  1075 PWs)   bands (ev):

    -4.1058   1.7673   4.2380   4.7229

          k = 0.7273-0.1818 0.9091 (  1092 PWs)   bands (ev):

    -3.3821   0.8966   3.3815   4.4809

          k = 0.6364-0.0909 0.8182 (  1094 PWs)   bands (ev):

    -2.9739   0.4928   2.6470   4.6500

          k = 0.5455 0.0000 0.7273 (  1098 PWs)   bands (ev):

    -3.2853   0.8106   2.4997   5.1030

          k = 0.8182-0.0909 1.0000 (  1088 PWs)   bands (ev):

    -2.9983   0.3931   3.9370   4.0867

          k = 0.7273 0.0000 0.9091 (  1090 PWs)   bands (ev):

    -2.7444   0.2846   3.0318   4.1986

          k = 0.6364-0.2727 1.0000 (  1094 PWs)   bands (ev):

    -3.7502   1.3159   3.2468   4.7943

          k = 0.5455-0.1818 0.9091 (  1089 PWs)   bands (ev):

    -3.1273   0.6481   2.8694   4.3451

          k = 0.6364-0.0909 1.0000 (  1088 PWs)   bands (ev):

    -2.8447   0.5381   3.1003   3.6340

          k = 0.5455 0.0000 0.9091 (  1089 PWs)   bands (ev):

    -2.7351   0.5279   2.6817   3.6932

     highest occupied level (ev):     8.4893

!    total energy              =     -46.19245693 Ry
     estimated scf accuracy    <          1.3E-09 Ry

     The total energy is the sum of the following terms:
     one-electron contribution =       6.71254023 Ry
     hartree contribution      =       1.23857428 Ry
     xc contribution           =     -34.14986148 Ry
     ewald contribution        =     -19.99370996 Ry

     convergence has been achieved in   9 iterations

     Forces acting on atoms (cartesian axes, Ry/au):

     atom    1 type  1   force =     0.00000000   -0.00000000   -0.00000000
     atom    2 type  2   force =    -0.00000000    0.00000000    0.00000000

     Total force =     0.000000     Total SCF correction =     0.000000


     Computing stress (Cartesian axis) and pressure

          total   stress  (Ry/bohr**3)                   (kbar)     P=      -13.87
  -0.00009429   0.00000000  -0.00000000          -13.87        0.00       -0.00
   0.00000000  -0.00009429   0.00000000            0.00      -13.87        0.00
  -0.00000000   0.00000000  -0.00009429           -0.00        0.00      -13.87


     Writing all to output data dir ./k11.save/
 
     init_run     :      2.90s CPU      3.21s WALL (       1 calls)
     electrons    :     26.57s CPU     28.69s WALL (       1 calls)
     forces       :      0.49s CPU      0.54s WALL (       1 calls)
     stress       :      3.93s CPU      4.07s WALL (       1 calls)

     Called by init_run:
     wfcinit      :      0.95s CPU      1.05s WALL (       1 calls)
     potinit      :      0.05s CPU      0.07s WALL (       1 calls)
     hinit0       :      1.57s CPU      1.66s WALL (       1 calls)

     Called by electrons:
     c_bands      :     18.93s CPU     20.30s WALL (       9 calls)
     sum_band     :      5.16s CPU      5.52s WALL (       9 calls)
     v_of_rho     :      0.31s CPU      0.32s WALL (      10 calls)
     newd         :      2.28s CPU      2.61s WALL (      10 calls)
     mix_rho      :      0.08s CPU      0.09s WALL (       9 calls)

     Called by c_bands:
     init_us_2    :      1.59s CPU      1.69s WALL (    1176 calls)
     init_us_2:cp :      1.56s CPU      1.67s WALL (    1176 calls)
     ccgdiagg     :     14.88s CPU     16.00s WALL (     504 calls)
     wfcrot       :      4.01s CPU      4.21s WALL (     504 calls)

     Called by *cgdiagg:
     h_psi        :     15.66s CPU     16.59s WALL (    7303 calls)
     s_psi        :      1.15s CPU      1.32s WALL (   14102 calls)

     Called by h_psi:
     h_psi:calbec :      0.96s CPU      1.03s WALL (    7303 calls)
     vloc_psi     :     13.57s CPU     14.35s WALL (    7303 calls)
     add_vuspsi   :      0.71s CPU      0.79s WALL (    7303 calls)
     hs_1psi      :     12.97s CPU     13.83s WALL (    6799 calls)
     s_1psi       :      1.34s CPU      1.49s WALL (    6799 calls)

     General routines
     calbec       :      1.46s CPU      1.66s WALL (   14886 calls)
     fft          :      0.19s CPU      0.22s WALL (      66 calls)
     ffts         :      0.02s CPU      0.02s WALL (      19 calls)
     fftw         :     13.12s CPU     13.84s WALL (   20094 calls)
     interpolate  :      0.05s CPU      0.05s WALL (      10 calls)
 
     Parallel routines
 
     PWSCF        :     34.72s CPU     38.62s WALL

 
   This run was terminated on:  17: 9:48  21Feb2022            

=------------------------------------------------------------------------------=
   JOB DONE.
=------------------------------------------------------------------------------=
