
     Program PWSCF v.7.0 starts on 14Feb2022 at 18:38:50 

     This program is part of the open-source Quantum ESPRESSO suite
     for quantum simulation of materials; please cite
         "P. Giannozzi et al., J. Phys.:Condens. Matter 21 395502 (2009);
         "P. Giannozzi et al., J. Phys.:Condens. Matter 29 465901 (2017);
         "P. Giannozzi et al., J. Chem. Phys. 152 154105 (2020);
          URL http://www.quantum-espresso.org", 
     in publications or presentations arising from this work. More details at
     http://www.quantum-espresso.org/quote

     Parallel version (MPI), running on     1 processors

     MPI processes distributed on     1 nodes
     88117 MiB available memory on the printing compute node when the environment starts
 
     Waiting for input...
     Reading input from standard input
Warning: card &CELL ignored
Warning: card  CELL_DYNAMICS = 'BFGS', ignored
Warning: card  PRESS=0.1D0, ignored
Warning: card / ignored

     Current dimensions of program PWSCF are:
     Max number of different atomic species (ntypx) = 10
     Max number of k-points (npk) =  40000
     Max angular momentum in pseudopotentials (lmaxx) =  4

     Subspace diagonalization in iterative solution of the eigenvalue problem:
     a serial algorithm will be used

 
     G-vector sticks info
     --------------------
     sticks:   dense  smooth     PW     G-vecs:    dense   smooth      PW
     Sum        2527     889    253                83227    17573    2733
 
     Using Slab Decomposition
 


     bravais-lattice index     =            2
     lattice parameter (alat)  =       9.0000  a.u.
     unit-cell volume          =     182.2500 (a.u.)^3
     number of atoms/cell      =            2
     number of atomic types    =            2
     number of electrons       =         8.00
     number of Kohn-Sham states=            4
     kinetic-energy cutoff     =      80.0000  Ry
     charge density cutoff     =     900.0000  Ry
     scf convergence threshold =      1.0E-08
     mixing beta               =       0.7000
     number of iterations used =            8  plain     mixing
     Exchange-correlation= SLA  PZ   NOGX NOGC
                           (   1   1   0   0   0   0   0)

     celldm(1)=   9.000000  celldm(2)=   0.000000  celldm(3)=   0.000000
     celldm(4)=   0.000000  celldm(5)=   0.000000  celldm(6)=   0.000000

     crystal axes: (cart. coord. in units of alat)
               a(1) = (  -0.500000   0.000000   0.500000 )  
               a(2) = (   0.000000   0.500000   0.500000 )  
               a(3) = (  -0.500000   0.500000   0.000000 )  

     reciprocal axes: (cart. coord. in units 2 pi/alat)
               b(1) = ( -1.000000 -1.000000  1.000000 )  
               b(2) = (  1.000000  1.000000  1.000000 )  
               b(3) = ( -1.000000  1.000000 -1.000000 )  


     PseudoPot. # 1 for B  read from file:
     ./pseudo_dir/B_LDA.UPF
     MD5 check sum: a9970de764dbc07c3a3d9583c605c3b2
     Pseudo is Ultrasoft + core correction, Zval =  3.0
     Generated by new atomic code, or converted to UPF format
     Using radial grid of  781 points,  4 beta functions with: 
                l(1) =   0
                l(2) =   0
                l(3) =   1
                l(4) =   1
     Q(r) pseudized with  8 coefficients,  rinner =    1.100   1.100   1.100


     PseudoPot. # 2 for As read from file:
     ./pseudo_dir/As_LDA.UPF
     MD5 check sum: 6d2e8cbe4ed9d0db7c6ef7a361cc050d
     Pseudo is Ultrasoft + core correction, Zval =  5.0
     Generated by new atomic code, or converted to UPF format
     Using radial grid of  875 points,  6 beta functions with: 
                l(1) =   0
                l(2) =   0
                l(3) =   1
                l(4) =   1
                l(5) =   2
                l(6) =   2
     Q(r) pseudized with  8 coefficients,  rinner =    1.300   1.300   1.300
                                                       1.300   1.300

     atomic species   valence    mass     pseudopotential
        B              3.00    10.81100     B ( 1.00)
        As             5.00    74.92160     As( 1.00)

     24 Sym. Ops. (no inversion) found



   Cartesian axes

     site n.     atom                  positions (alat units)
         1           B   tau(   1) = (   0.0000000   0.0000000   0.0000000  )
         2           As  tau(   2) = (  -0.2500000   0.2500000   0.2500000  )

     number of k points=     3
                       cart. coord. in units 2pi/alat
        k(    1) = (   0.0000000   0.0000000   0.0000000), wk =   0.2500000
        k(    2) = (   0.5000000  -0.5000000   0.5000000), wk =   1.0000000
        k(    3) = (   0.0000000  -1.0000000   0.0000000), wk =   0.7500000

     Dense  grid:    83227 G-vectors     FFT dimensions: (  64,  64,  64)

     Smooth grid:    17573 G-vectors     FFT dimensions: (  40,  40,  40)

     Estimated max dynamical RAM per process >     316.13 MB

     Initial potential from superposition of free atoms

     starting charge       7.9996, renormalised to       8.0000
     Starting wfcs are    8 randomized atomic wfcs

     total cpu time spent up to now is        5.3 secs

     Self-consistent Calculation

     iteration #  1     ecut=    80.00 Ry     beta= 0.70
     CG style diagonalization
     ethr =  1.00E-02,  avg # of iterations =  2.8

     total cpu time spent up to now is        6.8 secs

     total energy              =     -45.90891182 Ry
     estimated scf accuracy    <       0.23875431 Ry

     iteration #  2     ecut=    80.00 Ry     beta= 0.70
     CG style diagonalization
     ethr =  2.98E-03,  avg # of iterations =  4.5

     total cpu time spent up to now is        8.3 secs

     total energy              =     -45.95532683 Ry
     estimated scf accuracy    <       0.09038727 Ry

     iteration #  3     ecut=    80.00 Ry     beta= 0.70
     CG style diagonalization
     ethr =  1.13E-03,  avg # of iterations =  4.2

     total cpu time spent up to now is        9.8 secs

     total energy              =     -45.97544563 Ry
     estimated scf accuracy    <       0.00111547 Ry

     iteration #  4     ecut=    80.00 Ry     beta= 0.70
     CG style diagonalization
     ethr =  1.39E-05,  avg # of iterations =  4.7

     total cpu time spent up to now is       11.3 secs

     total energy              =     -45.97619680 Ry
     estimated scf accuracy    <       0.00039041 Ry

     iteration #  5     ecut=    80.00 Ry     beta= 0.70
     CG style diagonalization
     ethr =  4.88E-06,  avg # of iterations =  4.3

     total cpu time spent up to now is       12.9 secs

     total energy              =     -45.97629951 Ry
     estimated scf accuracy    <       0.00003579 Ry

     iteration #  6     ecut=    80.00 Ry     beta= 0.70
     CG style diagonalization
     ethr =  4.47E-07,  avg # of iterations =  4.7

     total cpu time spent up to now is       14.4 secs

     total energy              =     -45.97631873 Ry
     estimated scf accuracy    <       0.00000069 Ry

     iteration #  7     ecut=    80.00 Ry     beta= 0.70
     CG style diagonalization
     ethr =  8.69E-09,  avg # of iterations =  6.4

     total cpu time spent up to now is       16.0 secs

     total energy              =     -45.97632121 Ry
     estimated scf accuracy    <       0.00000060 Ry

     iteration #  8     ecut=    80.00 Ry     beta= 0.70
     CG style diagonalization
     ethr =  7.48E-09,  avg # of iterations =  3.8

     total cpu time spent up to now is       17.5 secs

     total energy              =     -45.97632129 Ry
     estimated scf accuracy    <       0.00000002 Ry

     iteration #  9     ecut=    80.00 Ry     beta= 0.70
     CG style diagonalization
     ethr =  2.78E-10,  avg # of iterations =  5.3

     total cpu time spent up to now is       19.1 secs

     End of self-consistent calculation

          k = 0.0000 0.0000 0.0000 (  2229 PWs)   bands (ev):

    -6.7866   8.8236   8.8236   8.8236

          k = 0.5000-0.5000 0.5000 (  2186 PWs)   bands (ev):

    -3.8752  -0.1401   6.9560   6.9560

          k = 0.0000-1.0000 0.0000 (  2200 PWs)   bands (ev):

    -2.5880   0.2660   4.6205   4.6205

     highest occupied level (ev):     8.8236

!    total energy              =     -45.97632130 Ry
     estimated scf accuracy    <          8.7E-09 Ry

     The total energy is the sum of the following terms:
     one-electron contribution =       6.84368189 Ry
     hartree contribution      =       1.39899375 Ry
     xc contribution           =     -34.22528698 Ry
     ewald contribution        =     -19.99370996 Ry

     convergence has been achieved in   9 iterations

     Forces acting on atoms (cartesian axes, Ry/au):

     atom    1 type  1   force =    -0.00000000   -0.00000000    0.00000000
     atom    2 type  2   force =     0.00000000    0.00000000   -0.00000000

     Total force =     0.000000     Total SCF correction =     0.000000


     Computing stress (Cartesian axis) and pressure

          total   stress  (Ry/bohr**3)                   (kbar)     P=      107.72
   0.00073225  -0.00000000   0.00000000          107.72       -0.00        0.00
  -0.00000000   0.00073225  -0.00000000           -0.00      107.72       -0.00
  -0.00000000  -0.00000000   0.00073225           -0.00       -0.00      107.72


     Writing all to output data dir ./k2.save/
 
     init_run     :      2.74s CPU      3.26s WALL (       1 calls)
     electrons    :     12.58s CPU     13.87s WALL (       1 calls)
     forces       :      0.67s CPU      0.73s WALL (       1 calls)
     stress       :      5.75s CPU      5.97s WALL (       1 calls)

     Called by init_run:
     wfcinit      :      0.11s CPU      0.22s WALL (       1 calls)
     potinit      :      0.09s CPU      0.13s WALL (       1 calls)
     hinit0       :      1.93s CPU      2.07s WALL (       1 calls)

     Called by electrons:
     c_bands      :      2.20s CPU      2.36s WALL (       9 calls)
     sum_band     :      5.53s CPU      6.06s WALL (       9 calls)
     v_of_rho     :      0.67s CPU      0.70s WALL (      10 calls)
     newd         :      4.40s CPU      4.98s WALL (      10 calls)
     mix_rho      :      0.16s CPU      0.17s WALL (       9 calls)

     Called by c_bands:
     init_us_2    :      0.18s CPU      0.19s WALL (      63 calls)
     init_us_2:cp :      0.18s CPU      0.19s WALL (      63 calls)
     ccgdiagg     :      1.74s CPU      1.87s WALL (      27 calls)
     wfcrot       :      0.46s CPU      0.55s WALL (      27 calls)

     Called by *cgdiagg:
     h_psi        :      1.85s CPU      1.98s WALL (     419 calls)
     s_psi        :      0.14s CPU      0.17s WALL (     811 calls)

     Called by h_psi:
     h_psi:calbec :      0.10s CPU      0.15s WALL (     419 calls)
     vloc_psi     :      1.64s CPU      1.71s WALL (     419 calls)
     add_vuspsi   :      0.08s CPU      0.10s WALL (     419 calls)
     hs_1psi      :      1.52s CPU      1.60s WALL (     392 calls)
     s_1psi       :      0.15s CPU      0.17s WALL (     392 calls)

     General routines
     calbec       :      0.16s CPU      0.22s WALL (     853 calls)
     fft          :      0.36s CPU      0.39s WALL (      66 calls)
     ffts         :      0.03s CPU      0.03s WALL (      19 calls)
     fftw         :      1.51s CPU      1.56s WALL (    1132 calls)
     interpolate  :      0.08s CPU      0.09s WALL (      10 calls)
 
     Parallel routines
 
     PWSCF        :     22.55s CPU     26.35s WALL

 
   This run was terminated on:  18:39:17  14Feb2022            

=------------------------------------------------------------------------------=
   JOB DONE.
=------------------------------------------------------------------------------=
