
     Program PWSCF v.7.0 starts on 15Feb2022 at  7:59:42 

     This program is part of the open-source Quantum ESPRESSO suite
     for quantum simulation of materials; please cite
         "P. Giannozzi et al., J. Phys.:Condens. Matter 21 395502 (2009);
         "P. Giannozzi et al., J. Phys.:Condens. Matter 29 465901 (2017);
         "P. Giannozzi et al., J. Chem. Phys. 152 154105 (2020);
          URL http://www.quantum-espresso.org", 
     in publications or presentations arising from this work. More details at
     http://www.quantum-espresso.org/quote

     Parallel version (MPI), running on     1 processors

     MPI processes distributed on     1 nodes
     87376 MiB available memory on the printing compute node when the environment starts
 
     Waiting for input...
     Reading input from standard input
Warning: card &CELL ignored
Warning: card  CELL_DYNAMICS = 'BFGS', ignored
Warning: card  PRESS=0.1D0, ignored
Warning: card / ignored

     Current dimensions of program PWSCF are:
     Max number of different atomic species (ntypx) = 10
     Max number of k-points (npk) =  40000
     Max angular momentum in pseudopotentials (lmaxx) =  4

     Subspace diagonalization in iterative solution of the eigenvalue problem:
     a serial algorithm will be used

 
     G-vector sticks info
     --------------------
     sticks:   dense  smooth     PW     G-vecs:    dense   smooth      PW
     Sum        1663     559    163                45143     8657    1459
 
     Using Slab Decomposition
 


     bravais-lattice index     =            2
     lattice parameter (alat)  =       9.0000  a.u.
     unit-cell volume          =     182.2500 (a.u.)^3
     number of atoms/cell      =            2
     number of atomic types    =            2
     number of electrons       =         8.00
     number of Kohn-Sham states=            4
     kinetic-energy cutoff     =      50.0000  Ry
     charge density cutoff     =     600.0000  Ry
     scf convergence threshold =      1.0E-08
     mixing beta               =       0.7000
     number of iterations used =            8  plain     mixing
     Exchange-correlation= SLA  PZ   NOGX NOGC
                           (   1   1   0   0   0   0   0)

     celldm(1)=   9.000000  celldm(2)=   0.000000  celldm(3)=   0.000000
     celldm(4)=   0.000000  celldm(5)=   0.000000  celldm(6)=   0.000000

     crystal axes: (cart. coord. in units of alat)
               a(1) = (  -0.500000   0.000000   0.500000 )  
               a(2) = (   0.000000   0.500000   0.500000 )  
               a(3) = (  -0.500000   0.500000   0.000000 )  

     reciprocal axes: (cart. coord. in units 2 pi/alat)
               b(1) = ( -1.000000 -1.000000  1.000000 )  
               b(2) = (  1.000000  1.000000  1.000000 )  
               b(3) = ( -1.000000  1.000000 -1.000000 )  


     PseudoPot. # 1 for B  read from file:
     ./pseudo_dir/B_LDA.UPF
     MD5 check sum: a9970de764dbc07c3a3d9583c605c3b2
     Pseudo is Ultrasoft + core correction, Zval =  3.0
     Generated by new atomic code, or converted to UPF format
     Using radial grid of  781 points,  4 beta functions with: 
                l(1) =   0
                l(2) =   0
                l(3) =   1
                l(4) =   1
     Q(r) pseudized with  8 coefficients,  rinner =    1.100   1.100   1.100


     PseudoPot. # 2 for As read from file:
     ./pseudo_dir/As_LDA.UPF
     MD5 check sum: 6d2e8cbe4ed9d0db7c6ef7a361cc050d
     Pseudo is Ultrasoft + core correction, Zval =  5.0
     Generated by new atomic code, or converted to UPF format
     Using radial grid of  875 points,  6 beta functions with: 
                l(1) =   0
                l(2) =   0
                l(3) =   1
                l(4) =   1
                l(5) =   2
                l(6) =   2
     Q(r) pseudized with  8 coefficients,  rinner =    1.300   1.300   1.300
                                                       1.300   1.300

     atomic species   valence    mass     pseudopotential
        B              3.00    10.81100     B ( 1.00)
        As             5.00    74.92160     As( 1.00)

     24 Sym. Ops. (no inversion) found



   Cartesian axes

     site n.     atom                  positions (alat units)
         1           B   tau(   1) = (   0.0000000   0.0000000   0.0000000  )
         2           As  tau(   2) = (  -0.2500000   0.2500000   0.2500000  )

     number of k points=     3
                       cart. coord. in units 2pi/alat
        k(    1) = (   0.0000000   0.0000000   0.0000000), wk =   0.2500000
        k(    2) = (   0.5000000  -0.5000000   0.5000000), wk =   1.0000000
        k(    3) = (   0.0000000  -1.0000000   0.0000000), wk =   0.7500000

     Dense  grid:    45143 G-vectors     FFT dimensions: (  50,  50,  50)

     Smooth grid:     8657 G-vectors     FFT dimensions: (  30,  30,  30)

     Estimated max dynamical RAM per process >     171.53 MB

     Initial potential from superposition of free atoms

     starting charge       7.9996, renormalised to       8.0000
     Starting wfcs are    8 randomized atomic wfcs

     total cpu time spent up to now is        4.4 secs

     Self-consistent Calculation

     iteration #  1     ecut=    50.00 Ry     beta= 0.70
     CG style diagonalization
     ethr =  1.00E-02,  avg # of iterations =  2.6

     total cpu time spent up to now is        5.2 secs

     total energy              =     -45.90963359 Ry
     estimated scf accuracy    <       0.23587303 Ry

     iteration #  2     ecut=    50.00 Ry     beta= 0.70
     CG style diagonalization
     ethr =  2.95E-03,  avg # of iterations =  4.5

     total cpu time spent up to now is        6.1 secs

     total energy              =     -45.95514675 Ry
     estimated scf accuracy    <       0.08861442 Ry

     iteration #  3     ecut=    50.00 Ry     beta= 0.70
     CG style diagonalization
     ethr =  1.11E-03,  avg # of iterations =  4.2

     total cpu time spent up to now is        6.9 secs

     total energy              =     -45.97501051 Ry
     estimated scf accuracy    <       0.00128350 Ry

     iteration #  4     ecut=    50.00 Ry     beta= 0.70
     CG style diagonalization
     ethr =  1.60E-05,  avg # of iterations =  4.5

     total cpu time spent up to now is        7.7 secs

     total energy              =     -45.97561604 Ry
     estimated scf accuracy    <       0.00024156 Ry

     iteration #  5     ecut=    50.00 Ry     beta= 0.70
     CG style diagonalization
     ethr =  3.02E-06,  avg # of iterations =  4.4

     total cpu time spent up to now is        8.6 secs

     total energy              =     -45.97568467 Ry
     estimated scf accuracy    <       0.00001830 Ry

     iteration #  6     ecut=    50.00 Ry     beta= 0.70
     CG style diagonalization
     ethr =  2.29E-07,  avg # of iterations =  4.2

     total cpu time spent up to now is        9.4 secs

     total energy              =     -45.97569269 Ry
     estimated scf accuracy    <       0.00000008 Ry

     iteration #  7     ecut=    50.00 Ry     beta= 0.70
     CG style diagonalization
     ethr =  1.04E-09,  avg # of iterations =  7.1

     total cpu time spent up to now is       10.3 secs

     total energy              =     -45.97569371 Ry
     estimated scf accuracy    <       0.00000003 Ry

     iteration #  8     ecut=    50.00 Ry     beta= 0.70
     CG style diagonalization
     ethr =  3.34E-10,  avg # of iterations =  3.4

     total cpu time spent up to now is       11.1 secs

     End of self-consistent calculation

          k = 0.0000 0.0000 0.0000 (  1067 PWs)   bands (ev):

    -6.7858   8.8258   8.8258   8.8258

          k = 0.5000-0.5000 0.5000 (  1068 PWs)   bands (ev):

    -3.8739  -0.1390   6.9580   6.9580

          k = 0.0000-1.0000 0.0000 (  1106 PWs)   bands (ev):

    -2.5865   0.2671   4.6221   4.6221

     highest occupied level (ev):     8.8258

!    total energy              =     -45.97569371 Ry
     estimated scf accuracy    <          8.0E-09 Ry

     The total energy is the sum of the following terms:
     one-electron contribution =       6.84759547 Ry
     hartree contribution      =       1.39922332 Ry
     xc contribution           =     -34.22880254 Ry
     ewald contribution        =     -19.99370996 Ry

     convergence has been achieved in   8 iterations

     Forces acting on atoms (cartesian axes, Ry/au):

     atom    1 type  1   force =     0.00000000   -0.00000000    0.00000000
     atom    2 type  2   force =    -0.00000000    0.00000000   -0.00000000

     Total force =     0.000000     Total SCF correction =     0.000000


     Computing stress (Cartesian axis) and pressure

          total   stress  (Ry/bohr**3)                   (kbar)     P=      107.81
   0.00073288   0.00000000   0.00000000          107.81        0.00        0.00
   0.00000000   0.00073288   0.00000000            0.00      107.81        0.00
   0.00000000   0.00000000   0.00073288            0.00        0.00      107.81


     Writing all to output data dir ./k2.save/
 
     init_run     :      2.05s CPU      2.51s WALL (       1 calls)
     electrons    :      5.99s CPU      6.72s WALL (       1 calls)
     forces       :      0.37s CPU      0.42s WALL (       1 calls)
     stress       :      3.13s CPU      3.28s WALL (       1 calls)

     Called by init_run:
     wfcinit      :      0.06s CPU      0.17s WALL (       1 calls)
     potinit      :      0.05s CPU      0.08s WALL (       1 calls)
     hinit0       :      1.61s CPU      1.74s WALL (       1 calls)

     Called by electrons:
     c_bands      :      0.98s CPU      1.06s WALL (       8 calls)
     sum_band     :      2.69s CPU      2.97s WALL (       8 calls)
     v_of_rho     :      0.29s CPU      0.31s WALL (       9 calls)
     newd         :      2.18s CPU      2.50s WALL (       9 calls)
     mix_rho      :      0.07s CPU      0.08s WALL (       8 calls)

     Called by c_bands:
     init_us_2    :      0.08s CPU      0.09s WALL (      57 calls)
     init_us_2:cp :      0.08s CPU      0.09s WALL (      57 calls)
     ccgdiagg     :      0.77s CPU      0.82s WALL (      24 calls)
     wfcrot       :      0.21s CPU      0.29s WALL (      24 calls)

     Called by *cgdiagg:
     h_psi        :      0.82s CPU      0.90s WALL (     360 calls)
     s_psi        :      0.05s CPU      0.06s WALL (     696 calls)

     Called by h_psi:
     h_psi:calbec :      0.05s CPU      0.09s WALL (     360 calls)
     vloc_psi     :      0.71s CPU      0.75s WALL (     360 calls)
     add_vuspsi   :      0.04s CPU      0.04s WALL (     360 calls)
     hs_1psi      :      0.68s CPU      0.71s WALL (     336 calls)
     s_1psi       :      0.06s CPU      0.07s WALL (     336 calls)

     General routines
     calbec       :      0.07s CPU      0.12s WALL (     735 calls)
     fft          :      0.19s CPU      0.21s WALL (      60 calls)
     ffts         :      0.02s CPU      0.02s WALL (      17 calls)
     fftw         :      0.68s CPU      0.71s WALL (     984 calls)
     interpolate  :      0.04s CPU      0.05s WALL (       9 calls)
 
     Parallel routines
 
     PWSCF        :     12.34s CPU     15.30s WALL

 
   This run was terminated on:   7:59:57  15Feb2022            

=------------------------------------------------------------------------------=
   JOB DONE.
=------------------------------------------------------------------------------=
