
     Program PWSCF v.7.0 starts on 14Feb2022 at 18:40: 2 

     This program is part of the open-source Quantum ESPRESSO suite
     for quantum simulation of materials; please cite
         "P. Giannozzi et al., J. Phys.:Condens. Matter 21 395502 (2009);
         "P. Giannozzi et al., J. Phys.:Condens. Matter 29 465901 (2017);
         "P. Giannozzi et al., J. Chem. Phys. 152 154105 (2020);
          URL http://www.quantum-espresso.org", 
     in publications or presentations arising from this work. More details at
     http://www.quantum-espresso.org/quote

     Parallel version (MPI), running on     1 processors

     MPI processes distributed on     1 nodes
     88125 MiB available memory on the printing compute node when the environment starts
 
     Waiting for input...
     Reading input from standard input
Warning: card &CELL ignored
Warning: card  CELL_DYNAMICS = 'BFGS', ignored
Warning: card  PRESS=0.1D0, ignored
Warning: card / ignored

     Current dimensions of program PWSCF are:
     Max number of different atomic species (ntypx) = 10
     Max number of k-points (npk) =  40000
     Max angular momentum in pseudopotentials (lmaxx) =  4

     Subspace diagonalization in iterative solution of the eigenvalue problem:
     a serial algorithm will be used

 
     G-vector sticks info
     --------------------
     sticks:   dense  smooth     PW     G-vecs:    dense   smooth      PW
     Sum        2527     889    253                83227    17573    2733
 
     Using Slab Decomposition
 


     bravais-lattice index     =            2
     lattice parameter (alat)  =       9.0000  a.u.
     unit-cell volume          =     182.2500 (a.u.)^3
     number of atoms/cell      =            2
     number of atomic types    =            2
     number of electrons       =         8.00
     number of Kohn-Sham states=            4
     kinetic-energy cutoff     =      80.0000  Ry
     charge density cutoff     =     900.0000  Ry
     scf convergence threshold =      1.0E-08
     mixing beta               =       0.7000
     number of iterations used =            8  plain     mixing
     Exchange-correlation= SLA  PZ   NOGX NOGC
                           (   1   1   0   0   0   0   0)

     celldm(1)=   9.000000  celldm(2)=   0.000000  celldm(3)=   0.000000
     celldm(4)=   0.000000  celldm(5)=   0.000000  celldm(6)=   0.000000

     crystal axes: (cart. coord. in units of alat)
               a(1) = (  -0.500000   0.000000   0.500000 )  
               a(2) = (   0.000000   0.500000   0.500000 )  
               a(3) = (  -0.500000   0.500000   0.000000 )  

     reciprocal axes: (cart. coord. in units 2 pi/alat)
               b(1) = ( -1.000000 -1.000000  1.000000 )  
               b(2) = (  1.000000  1.000000  1.000000 )  
               b(3) = ( -1.000000  1.000000 -1.000000 )  


     PseudoPot. # 1 for B  read from file:
     ./pseudo_dir/B_LDA.UPF
     MD5 check sum: a9970de764dbc07c3a3d9583c605c3b2
     Pseudo is Ultrasoft + core correction, Zval =  3.0
     Generated by new atomic code, or converted to UPF format
     Using radial grid of  781 points,  4 beta functions with: 
                l(1) =   0
                l(2) =   0
                l(3) =   1
                l(4) =   1
     Q(r) pseudized with  8 coefficients,  rinner =    1.100   1.100   1.100


     PseudoPot. # 2 for As read from file:
     ./pseudo_dir/As_LDA.UPF
     MD5 check sum: 6d2e8cbe4ed9d0db7c6ef7a361cc050d
     Pseudo is Ultrasoft + core correction, Zval =  5.0
     Generated by new atomic code, or converted to UPF format
     Using radial grid of  875 points,  6 beta functions with: 
                l(1) =   0
                l(2) =   0
                l(3) =   1
                l(4) =   1
                l(5) =   2
                l(6) =   2
     Q(r) pseudized with  8 coefficients,  rinner =    1.300   1.300   1.300
                                                       1.300   1.300

     atomic species   valence    mass     pseudopotential
        B              3.00    10.81100     B ( 1.00)
        As             5.00    74.92160     As( 1.00)

     24 Sym. Ops. (no inversion) found



   Cartesian axes

     site n.     atom                  positions (alat units)
         1           B   tau(   1) = (   0.0000000   0.0000000   0.0000000  )
         2           As  tau(   2) = (  -0.2500000   0.2500000   0.2500000  )

     number of k points=     4
                       cart. coord. in units 2pi/alat
        k(    1) = (   0.0000000   0.0000000   0.0000000), wk =   0.0740741
        k(    2) = (  -0.3333333   0.3333333  -0.3333333), wk =   0.5925926
        k(    3) = (   0.0000000   0.6666667   0.0000000), wk =   0.4444444
        k(    4) = (   0.6666667  -0.0000000   0.6666667), wk =   0.8888889

     Dense  grid:    83227 G-vectors     FFT dimensions: (  64,  64,  64)

     Smooth grid:    17573 G-vectors     FFT dimensions: (  40,  40,  40)

     Estimated max dynamical RAM per process >     316.26 MB

     Initial potential from superposition of free atoms

     starting charge       7.9996, renormalised to       8.0000
     Starting wfcs are    8 randomized atomic wfcs

     total cpu time spent up to now is        4.5 secs

     Self-consistent Calculation

     iteration #  1     ecut=    80.00 Ry     beta= 0.70
     CG style diagonalization
     ethr =  1.00E-02,  avg # of iterations =  2.7

     total cpu time spent up to now is        6.1 secs

     total energy              =     -46.09739706 Ry
     estimated scf accuracy    <       0.17023457 Ry

     iteration #  2     ecut=    80.00 Ry     beta= 0.70
     CG style diagonalization
     ethr =  2.13E-03,  avg # of iterations =  4.5

     total cpu time spent up to now is        7.7 secs

     total energy              =     -46.13380778 Ry
     estimated scf accuracy    <       0.04955968 Ry

     iteration #  3     ecut=    80.00 Ry     beta= 0.70
     CG style diagonalization
     ethr =  6.19E-04,  avg # of iterations =  4.2

     total cpu time spent up to now is        9.3 secs

     total energy              =     -46.14468979 Ry
     estimated scf accuracy    <       0.00061470 Ry

     iteration #  4     ecut=    80.00 Ry     beta= 0.70
     CG style diagonalization
     ethr =  7.68E-06,  avg # of iterations =  4.6

     total cpu time spent up to now is       10.9 secs

     total energy              =     -46.14512905 Ry
     estimated scf accuracy    <       0.00009121 Ry

     iteration #  5     ecut=    80.00 Ry     beta= 0.70
     CG style diagonalization
     ethr =  1.14E-06,  avg # of iterations =  4.4

     total cpu time spent up to now is       12.6 secs

     total energy              =     -46.14515836 Ry
     estimated scf accuracy    <       0.00000190 Ry

     iteration #  6     ecut=    80.00 Ry     beta= 0.70
     CG style diagonalization
     ethr =  2.37E-08,  avg # of iterations =  6.7

     total cpu time spent up to now is       14.4 secs

     total energy              =     -46.14516486 Ry
     estimated scf accuracy    <       0.00000078 Ry

     iteration #  7     ecut=    80.00 Ry     beta= 0.70
     CG style diagonalization
     ethr =  9.69E-09,  avg # of iterations =  4.6

     total cpu time spent up to now is       16.0 secs

     total energy              =     -46.14516508 Ry
     estimated scf accuracy    <       0.00000031 Ry

     iteration #  8     ecut=    80.00 Ry     beta= 0.70
     CG style diagonalization
     ethr =  3.89E-09,  avg # of iterations =  4.1

     total cpu time spent up to now is       17.6 secs

     End of self-consistent calculation

          k = 0.0000 0.0000 0.0000 (  2229 PWs)   bands (ev):

    -6.9221   8.5955   8.5955   8.5955

          k =-0.3333 0.3333-0.3333 (  2205 PWs)   bands (ev):

    -5.1922   1.7913   7.0623   7.0623

          k = 0.0000 0.6667 0.0000 (  2181 PWs)   bands (ev):

    -4.5720   2.6615   5.0853   5.0853

          k = 0.6667-0.0000 0.6667 (  2215 PWs)   bands (ev):

    -3.0918   0.7545   2.3875   5.4995

     highest occupied level (ev):     8.5955

!    total energy              =     -46.14516514 Ry
     estimated scf accuracy    <          3.5E-09 Ry

     The total energy is the sum of the following terms:
     one-electron contribution =       6.73003020 Ry
     hartree contribution      =       1.28969036 Ry
     xc contribution           =     -34.17117575 Ry
     ewald contribution        =     -19.99370996 Ry

     convergence has been achieved in   8 iterations

     Forces acting on atoms (cartesian axes, Ry/au):

     atom    1 type  1   force =     0.00000000    0.00000000    0.00000000
     atom    2 type  2   force =     0.00000000    0.00000000    0.00000000

     Total force =     0.000000     Total SCF correction =     0.000000


     Computing stress (Cartesian axis) and pressure

          total   stress  (Ry/bohr**3)                   (kbar)     P=       10.19
   0.00006925  -0.00000000  -0.00000000           10.19       -0.00       -0.00
  -0.00000000   0.00006925   0.00000000           -0.00       10.19        0.00
   0.00000000   0.00000000   0.00006925            0.00        0.00       10.19


     Writing all to output data dir ./k3.save/
 
     init_run     :      2.78s CPU      3.13s WALL (       1 calls)
     electrons    :     11.92s CPU     13.15s WALL (       1 calls)
     forces       :      0.68s CPU      0.74s WALL (       1 calls)
     stress       :      5.76s CPU      5.98s WALL (       1 calls)

     Called by init_run:
     wfcinit      :      0.15s CPU      0.21s WALL (       1 calls)
     potinit      :      0.09s CPU      0.15s WALL (       1 calls)
     hinit0       :      1.94s CPU      2.04s WALL (       1 calls)

     Called by electrons:
     c_bands      :      2.59s CPU      2.78s WALL (       8 calls)
     sum_band     :      5.01s CPU      5.50s WALL (       8 calls)
     v_of_rho     :      0.61s CPU      0.63s WALL (       9 calls)
     newd         :      3.96s CPU      4.51s WALL (       9 calls)
     mix_rho      :      0.14s CPU      0.15s WALL (       8 calls)

     Called by c_bands:
     init_us_2    :      0.22s CPU      0.23s WALL (      76 calls)
     init_us_2:cp :      0.21s CPU      0.23s WALL (      76 calls)
     ccgdiagg     :      2.06s CPU      2.20s WALL (      32 calls)
     wfcrot       :      0.54s CPU      0.62s WALL (      32 calls)

     Called by *cgdiagg:
     h_psi        :      2.19s CPU      2.31s WALL (     493 calls)
     s_psi        :      0.17s CPU      0.20s WALL (     954 calls)

     Called by h_psi:
     h_psi:calbec :      0.12s CPU      0.15s WALL (     493 calls)
     vloc_psi     :      1.94s CPU      2.01s WALL (     493 calls)
     add_vuspsi   :      0.10s CPU      0.11s WALL (     493 calls)
     hs_1psi      :      1.81s CPU      1.90s WALL (     461 calls)
     s_1psi       :      0.18s CPU      0.21s WALL (     461 calls)

     General routines
     calbec       :      0.19s CPU      0.24s WALL (    1006 calls)
     fft          :      0.33s CPU      0.36s WALL (      60 calls)
     ffts         :      0.02s CPU      0.04s WALL (      17 calls)
     fftw         :      1.78s CPU      1.85s WALL (    1338 calls)
     interpolate  :      0.08s CPU      0.09s WALL (       9 calls)
 
     Parallel routines
 
     PWSCF        :     21.91s CPU     24.77s WALL

 
   This run was terminated on:  18:40:27  14Feb2022            

=------------------------------------------------------------------------------=
   JOB DONE.
=------------------------------------------------------------------------------=
