
     Program PWSCF v.7.0 starts on 15Feb2022 at  8: 5:40 

     This program is part of the open-source Quantum ESPRESSO suite
     for quantum simulation of materials; please cite
         "P. Giannozzi et al., J. Phys.:Condens. Matter 21 395502 (2009);
         "P. Giannozzi et al., J. Phys.:Condens. Matter 29 465901 (2017);
         "P. Giannozzi et al., J. Chem. Phys. 152 154105 (2020);
          URL http://www.quantum-espresso.org", 
     in publications or presentations arising from this work. More details at
     http://www.quantum-espresso.org/quote

     Parallel version (MPI), running on     1 processors

     MPI processes distributed on     1 nodes
     90248 MiB available memory on the printing compute node when the environment starts
 
     Waiting for input...
     Reading input from standard input
Warning: card &CELL ignored
Warning: card  CELL_DYNAMICS = 'BFGS', ignored
Warning: card  PRESS=0.1D0, ignored
Warning: card / ignored

     Current dimensions of program PWSCF are:
     Max number of different atomic species (ntypx) = 10
     Max number of k-points (npk) =  40000
     Max angular momentum in pseudopotentials (lmaxx) =  4

     Subspace diagonalization in iterative solution of the eigenvalue problem:
     a serial algorithm will be used

 
     G-vector sticks info
     --------------------
     sticks:   dense  smooth     PW     G-vecs:    dense   smooth      PW
     Sum        1663     559    163                45143     8657    1459
 
     Using Slab Decomposition
 


     bravais-lattice index     =            2
     lattice parameter (alat)  =       9.0000  a.u.
     unit-cell volume          =     182.2500 (a.u.)^3
     number of atoms/cell      =            2
     number of atomic types    =            2
     number of electrons       =         8.00
     number of Kohn-Sham states=            4
     kinetic-energy cutoff     =      50.0000  Ry
     charge density cutoff     =     600.0000  Ry
     scf convergence threshold =      1.0E-08
     mixing beta               =       0.7000
     number of iterations used =            8  plain     mixing
     Exchange-correlation= SLA  PZ   NOGX NOGC
                           (   1   1   0   0   0   0   0)

     celldm(1)=   9.000000  celldm(2)=   0.000000  celldm(3)=   0.000000
     celldm(4)=   0.000000  celldm(5)=   0.000000  celldm(6)=   0.000000

     crystal axes: (cart. coord. in units of alat)
               a(1) = (  -0.500000   0.000000   0.500000 )  
               a(2) = (   0.000000   0.500000   0.500000 )  
               a(3) = (  -0.500000   0.500000   0.000000 )  

     reciprocal axes: (cart. coord. in units 2 pi/alat)
               b(1) = ( -1.000000 -1.000000  1.000000 )  
               b(2) = (  1.000000  1.000000  1.000000 )  
               b(3) = ( -1.000000  1.000000 -1.000000 )  


     PseudoPot. # 1 for B  read from file:
     ./pseudo_dir/B_LDA.UPF
     MD5 check sum: a9970de764dbc07c3a3d9583c605c3b2
     Pseudo is Ultrasoft + core correction, Zval =  3.0
     Generated by new atomic code, or converted to UPF format
     Using radial grid of  781 points,  4 beta functions with: 
                l(1) =   0
                l(2) =   0
                l(3) =   1
                l(4) =   1
     Q(r) pseudized with  8 coefficients,  rinner =    1.100   1.100   1.100


     PseudoPot. # 2 for As read from file:
     ./pseudo_dir/As_LDA.UPF
     MD5 check sum: 6d2e8cbe4ed9d0db7c6ef7a361cc050d
     Pseudo is Ultrasoft + core correction, Zval =  5.0
     Generated by new atomic code, or converted to UPF format
     Using radial grid of  875 points,  6 beta functions with: 
                l(1) =   0
                l(2) =   0
                l(3) =   1
                l(4) =   1
                l(5) =   2
                l(6) =   2
     Q(r) pseudized with  8 coefficients,  rinner =    1.300   1.300   1.300
                                                       1.300   1.300

     atomic species   valence    mass     pseudopotential
        B              3.00    10.81100     B ( 1.00)
        As             5.00    74.92160     As( 1.00)

     24 Sym. Ops. (no inversion) found



   Cartesian axes

     site n.     atom                  positions (alat units)
         1           B   tau(   1) = (   0.0000000   0.0000000   0.0000000  )
         2           As  tau(   2) = (  -0.2500000   0.2500000   0.2500000  )

     number of k points=    10
                       cart. coord. in units 2pi/alat
        k(    1) = (   0.0000000   0.0000000   0.0000000), wk =   0.0160000
        k(    2) = (  -0.2000000   0.2000000  -0.2000000), wk =   0.1280000
        k(    3) = (  -0.4000000   0.4000000  -0.4000000), wk =   0.1280000
        k(    4) = (   0.0000000   0.4000000   0.0000000), wk =   0.0960000
        k(    5) = (  -0.2000000   0.6000000  -0.2000000), wk =   0.3840000
        k(    6) = (   0.6000000  -0.2000000   0.6000000), wk =   0.3840000
        k(    7) = (   0.4000000   0.0000000   0.4000000), wk =   0.1920000
        k(    8) = (   0.0000000   0.8000000   0.0000000), wk =   0.0960000
        k(    9) = (   0.8000000   0.0000000   0.8000000), wk =   0.1920000
        k(   10) = (   0.6000000  -0.2000000   1.0000000), wk =   0.3840000

     Dense  grid:    45143 G-vectors     FFT dimensions: (  50,  50,  50)

     Smooth grid:     8657 G-vectors     FFT dimensions: (  30,  30,  30)

     Estimated max dynamical RAM per process >     172.00 MB

     Initial potential from superposition of free atoms

     starting charge       7.9996, renormalised to       8.0000
     Starting wfcs are    8 randomized atomic wfcs

     total cpu time spent up to now is        3.8 secs

     Self-consistent Calculation

     iteration #  1     ecut=    50.00 Ry     beta= 0.70
     CG style diagonalization
     ethr =  1.00E-02,  avg # of iterations =  2.6

     total cpu time spent up to now is        4.9 secs

     total energy              =     -46.14645426 Ry
     estimated scf accuracy    <       0.14784369 Ry

     iteration #  2     ecut=    50.00 Ry     beta= 0.70
     CG style diagonalization
     ethr =  1.85E-03,  avg # of iterations =  4.3

     total cpu time spent up to now is        6.0 secs

     total energy              =     -46.17952322 Ry
     estimated scf accuracy    <       0.03813308 Ry

     iteration #  3     ecut=    50.00 Ry     beta= 0.70
     CG style diagonalization
     ethr =  4.77E-04,  avg # of iterations =  4.2

     total cpu time spent up to now is        7.2 secs

     total energy              =     -46.18791347 Ry
     estimated scf accuracy    <       0.00041707 Ry

     iteration #  4     ecut=    50.00 Ry     beta= 0.70
     CG style diagonalization
     ethr =  5.21E-06,  avg # of iterations =  4.7

     total cpu time spent up to now is        8.4 secs

     total energy              =     -46.18820783 Ry
     estimated scf accuracy    <       0.00008827 Ry

     iteration #  5     ecut=    50.00 Ry     beta= 0.70
     CG style diagonalization
     ethr =  1.10E-06,  avg # of iterations =  4.2

     total cpu time spent up to now is        9.5 secs

     total energy              =     -46.18822956 Ry
     estimated scf accuracy    <       0.00000239 Ry

     iteration #  6     ecut=    50.00 Ry     beta= 0.70
     CG style diagonalization
     ethr =  2.99E-08,  avg # of iterations =  5.7

     total cpu time spent up to now is       10.8 secs

     total energy              =     -46.18823272 Ry
     estimated scf accuracy    <       0.00000039 Ry

     iteration #  7     ecut=    50.00 Ry     beta= 0.70
     CG style diagonalization
     ethr =  4.88E-09,  avg # of iterations =  4.8

     total cpu time spent up to now is       12.0 secs

     total energy              =     -46.18823286 Ry
     estimated scf accuracy    <       0.00000034 Ry

     iteration #  8     ecut=    50.00 Ry     beta= 0.70
     CG style diagonalization
     ethr =  4.26E-09,  avg # of iterations =  4.3

     total cpu time spent up to now is       13.2 secs

     total energy              =     -46.18823296 Ry
     estimated scf accuracy    <       0.00000002 Ry

     iteration #  9     ecut=    50.00 Ry     beta= 0.70
     CG style diagonalization
     ethr =  2.26E-10,  avg # of iterations =  4.3

     total cpu time spent up to now is       14.3 secs

     End of self-consistent calculation

          k = 0.0000 0.0000 0.0000 (  1067 PWs)   bands (ev):

    -6.9779   8.5053   8.5053   8.5053

          k =-0.2000 0.2000-0.2000 (  1089 PWs)   bands (ev):

    -6.3265   4.7283   7.6229   7.6229

          k =-0.4000 0.4000-0.4000 (  1095 PWs)   bands (ev):

    -4.6331   0.5392   6.7884   6.7884

          k = 0.0000 0.4000 0.0000 (  1086 PWs)   bands (ev):

    -6.1058   5.5339   6.3517   6.3517

          k =-0.2000 0.6000-0.2000 (  1078 PWs)   bands (ev):

    -4.7014   1.9632   5.0057   5.6061

          k = 0.6000-0.2000 0.6000 (  1090 PWs)   bands (ev):

    -3.6789   0.2440   3.9245   5.9815

          k = 0.4000 0.0000 0.4000 (  1083 PWs)   bands (ev):

    -5.2911   3.0302   4.3897   7.2065

          k = 0.0000 0.8000 0.0000 (  1082 PWs)   bands (ev):

    -3.7255   1.2143   4.6205   4.6205

          k = 0.8000 0.0000 0.8000 (  1103 PWs)   bands (ev):

    -2.7742   0.2916   2.7997   4.7810

          k = 0.6000-0.2000 1.0000 (  1091 PWs)   bands (ev):

    -3.2622   0.9174   2.9688   4.2877

     highest occupied level (ev):     8.5053

!    total energy              =     -46.18823296 Ry
     estimated scf accuracy    <          3.1E-10 Ry

     The total energy is the sum of the following terms:
     one-electron contribution =       6.71275141 Ry
     hartree contribution      =       1.24610611 Ry
     xc contribution           =     -34.15338053 Ry
     ewald contribution        =     -19.99370996 Ry

     convergence has been achieved in   9 iterations

     Forces acting on atoms (cartesian axes, Ry/au):

     atom    1 type  1   force =     0.00000000    0.00000000    0.00000000
     atom    2 type  2   force =    -0.00000000    0.00000000    0.00000000

     Total force =     0.000000     Total SCF correction =     0.000000


     Computing stress (Cartesian axis) and pressure

          total   stress  (Ry/bohr**3)                   (kbar)     P=      -12.22
  -0.00008307   0.00000000  -0.00000000          -12.22        0.00       -0.00
   0.00000000  -0.00008307   0.00000000            0.00      -12.22        0.00
   0.00000000   0.00000000  -0.00008307            0.00        0.00      -12.22


     Writing all to output data dir ./k5.save/
 
     init_run     :      2.20s CPU      2.48s WALL (       1 calls)
     electrons    :      9.58s CPU     10.56s WALL (       1 calls)
     forces       :      0.39s CPU      0.43s WALL (       1 calls)
     stress       :      3.27s CPU      3.39s WALL (       1 calls)

     Called by init_run:
     wfcinit      :      0.18s CPU      0.25s WALL (       1 calls)
     potinit      :      0.05s CPU      0.08s WALL (       1 calls)
     hinit0       :      1.63s CPU      1.73s WALL (       1 calls)

     Called by electrons:
     c_bands      :      3.60s CPU      3.88s WALL (       9 calls)
     sum_band     :      3.35s CPU      3.65s WALL (       9 calls)
     v_of_rho     :      0.33s CPU      0.34s WALL (      10 calls)
     newd         :      2.41s CPU      2.77s WALL (      10 calls)
     mix_rho      :      0.08s CPU      0.09s WALL (       9 calls)

     Called by c_bands:
     init_us_2    :      0.29s CPU      0.32s WALL (     210 calls)
     init_us_2:cp :      0.29s CPU      0.31s WALL (     210 calls)
     ccgdiagg     :      2.83s CPU      3.06s WALL (      90 calls)
     wfcrot       :      0.76s CPU      0.85s WALL (      90 calls)

     Called by *cgdiagg:
     h_psi        :      3.02s CPU      3.21s WALL (    1335 calls)
     s_psi        :      0.20s CPU      0.23s WALL (    2580 calls)

     Called by h_psi:
     h_psi:calbec :      0.19s CPU      0.22s WALL (    1335 calls)
     vloc_psi     :      2.63s CPU      2.78s WALL (    1335 calls)
     add_vuspsi   :      0.13s CPU      0.14s WALL (    1335 calls)
     hs_1psi      :      2.49s CPU      2.65s WALL (    1245 calls)
     s_1psi       :      0.24s CPU      0.26s WALL (    1245 calls)

     General routines
     calbec       :      0.28s CPU      0.32s WALL (    2720 calls)
     fft          :      0.21s CPU      0.23s WALL (      66 calls)
     ffts         :      0.01s CPU      0.02s WALL (      19 calls)
     fftw         :      2.53s CPU      2.67s WALL (    3650 calls)
     interpolate  :      0.05s CPU      0.05s WALL (      10 calls)
 
     Parallel routines
 
     PWSCF        :     16.23s CPU     18.61s WALL

 
   This run was terminated on:   8: 5:59  15Feb2022            

=------------------------------------------------------------------------------=
   JOB DONE.
=------------------------------------------------------------------------------=
