
     Program PWSCF v.7.0 starts on 14Feb2022 at 18:42:34 

     This program is part of the open-source Quantum ESPRESSO suite
     for quantum simulation of materials; please cite
         "P. Giannozzi et al., J. Phys.:Condens. Matter 21 395502 (2009);
         "P. Giannozzi et al., J. Phys.:Condens. Matter 29 465901 (2017);
         "P. Giannozzi et al., J. Chem. Phys. 152 154105 (2020);
          URL http://www.quantum-espresso.org", 
     in publications or presentations arising from this work. More details at
     http://www.quantum-espresso.org/quote

     Parallel version (MPI), running on     1 processors

     MPI processes distributed on     1 nodes
     87693 MiB available memory on the printing compute node when the environment starts
 
     Waiting for input...
     Reading input from standard input
Warning: card &CELL ignored
Warning: card  CELL_DYNAMICS = 'BFGS', ignored
Warning: card  PRESS=0.1D0, ignored
Warning: card / ignored

     Current dimensions of program PWSCF are:
     Max number of different atomic species (ntypx) = 10
     Max number of k-points (npk) =  40000
     Max angular momentum in pseudopotentials (lmaxx) =  4

     Subspace diagonalization in iterative solution of the eigenvalue problem:
     a serial algorithm will be used

 
     G-vector sticks info
     --------------------
     sticks:   dense  smooth     PW     G-vecs:    dense   smooth      PW
     Sum        2527     889    265                83227    17573    2837
 
     Using Slab Decomposition
 


     bravais-lattice index     =            2
     lattice parameter (alat)  =       9.0000  a.u.
     unit-cell volume          =     182.2500 (a.u.)^3
     number of atoms/cell      =            2
     number of atomic types    =            2
     number of electrons       =         8.00
     number of Kohn-Sham states=            4
     kinetic-energy cutoff     =      80.0000  Ry
     charge density cutoff     =     900.0000  Ry
     scf convergence threshold =      1.0E-08
     mixing beta               =       0.7000
     number of iterations used =            8  plain     mixing
     Exchange-correlation= SLA  PZ   NOGX NOGC
                           (   1   1   0   0   0   0   0)

     celldm(1)=   9.000000  celldm(2)=   0.000000  celldm(3)=   0.000000
     celldm(4)=   0.000000  celldm(5)=   0.000000  celldm(6)=   0.000000

     crystal axes: (cart. coord. in units of alat)
               a(1) = (  -0.500000   0.000000   0.500000 )  
               a(2) = (   0.000000   0.500000   0.500000 )  
               a(3) = (  -0.500000   0.500000   0.000000 )  

     reciprocal axes: (cart. coord. in units 2 pi/alat)
               b(1) = ( -1.000000 -1.000000  1.000000 )  
               b(2) = (  1.000000  1.000000  1.000000 )  
               b(3) = ( -1.000000  1.000000 -1.000000 )  


     PseudoPot. # 1 for B  read from file:
     ./pseudo_dir/B_LDA.UPF
     MD5 check sum: a9970de764dbc07c3a3d9583c605c3b2
     Pseudo is Ultrasoft + core correction, Zval =  3.0
     Generated by new atomic code, or converted to UPF format
     Using radial grid of  781 points,  4 beta functions with: 
                l(1) =   0
                l(2) =   0
                l(3) =   1
                l(4) =   1
     Q(r) pseudized with  8 coefficients,  rinner =    1.100   1.100   1.100


     PseudoPot. # 2 for As read from file:
     ./pseudo_dir/As_LDA.UPF
     MD5 check sum: 6d2e8cbe4ed9d0db7c6ef7a361cc050d
     Pseudo is Ultrasoft + core correction, Zval =  5.0
     Generated by new atomic code, or converted to UPF format
     Using radial grid of  875 points,  6 beta functions with: 
                l(1) =   0
                l(2) =   0
                l(3) =   1
                l(4) =   1
                l(5) =   2
                l(6) =   2
     Q(r) pseudized with  8 coefficients,  rinner =    1.300   1.300   1.300
                                                       1.300   1.300

     atomic species   valence    mass     pseudopotential
        B              3.00    10.81100     B ( 1.00)
        As             5.00    74.92160     As( 1.00)

     24 Sym. Ops. (no inversion) found



   Cartesian axes

     site n.     atom                  positions (alat units)
         1           B   tau(   1) = (   0.0000000   0.0000000   0.0000000  )
         2           As  tau(   2) = (  -0.2500000   0.2500000   0.2500000  )

     number of k points=    10
                       cart. coord. in units 2pi/alat
        k(    1) = (   0.0000000   0.0000000   0.0000000), wk =   0.0160000
        k(    2) = (  -0.2000000   0.2000000  -0.2000000), wk =   0.1280000
        k(    3) = (  -0.4000000   0.4000000  -0.4000000), wk =   0.1280000
        k(    4) = (   0.0000000   0.4000000   0.0000000), wk =   0.0960000
        k(    5) = (  -0.2000000   0.6000000  -0.2000000), wk =   0.3840000
        k(    6) = (   0.6000000  -0.2000000   0.6000000), wk =   0.3840000
        k(    7) = (   0.4000000   0.0000000   0.4000000), wk =   0.1920000
        k(    8) = (   0.0000000   0.8000000   0.0000000), wk =   0.0960000
        k(    9) = (   0.8000000   0.0000000   0.8000000), wk =   0.1920000
        k(   10) = (   0.6000000  -0.2000000   1.0000000), wk =   0.3840000

     Dense  grid:    83227 G-vectors     FFT dimensions: (  64,  64,  64)

     Smooth grid:    17573 G-vectors     FFT dimensions: (  40,  40,  40)

     Estimated max dynamical RAM per process >     317.07 MB

     Initial potential from superposition of free atoms

     starting charge       7.9996, renormalised to       8.0000
     Starting wfcs are    8 randomized atomic wfcs

     total cpu time spent up to now is        4.8 secs

     Self-consistent Calculation

     iteration #  1     ecut=    80.00 Ry     beta= 0.70
     CG style diagonalization
     ethr =  1.00E-02,  avg # of iterations =  2.7

     total cpu time spent up to now is        6.7 secs

     total energy              =     -46.14686450 Ry
     estimated scf accuracy    <       0.14794179 Ry

     iteration #  2     ecut=    80.00 Ry     beta= 0.70
     CG style diagonalization
     ethr =  1.85E-03,  avg # of iterations =  4.3

     total cpu time spent up to now is        8.9 secs

     total energy              =     -46.18012775 Ry
     estimated scf accuracy    <       0.03730250 Ry

     iteration #  3     ecut=    80.00 Ry     beta= 0.70
     CG style diagonalization
     ethr =  4.66E-04,  avg # of iterations =  4.2

     total cpu time spent up to now is       11.0 secs

     total energy              =     -46.18844184 Ry
     estimated scf accuracy    <       0.00040988 Ry

     iteration #  4     ecut=    80.00 Ry     beta= 0.70
     CG style diagonalization
     ethr =  5.12E-06,  avg # of iterations =  4.9

     total cpu time spent up to now is       13.2 secs

     total energy              =     -46.18877422 Ry
     estimated scf accuracy    <       0.00015645 Ry

     iteration #  5     ecut=    80.00 Ry     beta= 0.70
     CG style diagonalization
     ethr =  1.96E-06,  avg # of iterations =  4.2

     total cpu time spent up to now is       15.4 secs

     total energy              =     -46.18882086 Ry
     estimated scf accuracy    <       0.00001466 Ry

     iteration #  6     ecut=    80.00 Ry     beta= 0.70
     CG style diagonalization
     ethr =  1.83E-07,  avg # of iterations =  5.0

     total cpu time spent up to now is       17.7 secs

     total energy              =     -46.18883075 Ry
     estimated scf accuracy    <       0.00000125 Ry

     iteration #  7     ecut=    80.00 Ry     beta= 0.70
     CG style diagonalization
     ethr =  1.56E-08,  avg # of iterations =  5.8

     total cpu time spent up to now is       20.1 secs

     total energy              =     -46.18883176 Ry
     estimated scf accuracy    <       0.00000171 Ry

     iteration #  8     ecut=    80.00 Ry     beta= 0.70
     CG style diagonalization
     ethr =  1.56E-08,  avg # of iterations =  4.5

     total cpu time spent up to now is       22.3 secs

     total energy              =     -46.18883228 Ry
     estimated scf accuracy    <       0.00000013 Ry

     iteration #  9     ecut=    80.00 Ry     beta= 0.70
     CG style diagonalization
     ethr =  1.60E-09,  avg # of iterations =  4.1

     total cpu time spent up to now is       24.4 secs

     End of self-consistent calculation

          k = 0.0000 0.0000 0.0000 (  2229 PWs)   bands (ev):

    -6.9789   8.5030   8.5030   8.5030

          k =-0.2000 0.2000-0.2000 (  2196 PWs)   bands (ev):

    -6.3275   4.7264   7.6208   7.6208

          k =-0.4000 0.4000-0.4000 (  2195 PWs)   bands (ev):

    -4.6344   0.5379   6.7864   6.7864

          k = 0.0000 0.4000 0.0000 (  2205 PWs)   bands (ev):

    -6.1069   5.5318   6.3498   6.3498

          k =-0.2000 0.6000-0.2000 (  2199 PWs)   bands (ev):

    -4.7027   1.9616   5.0038   5.6043

          k = 0.6000-0.2000 0.6000 (  2210 PWs)   bands (ev):

    -3.6805   0.2428   3.9229   5.9796

          k = 0.4000 0.0000 0.4000 (  2199 PWs)   bands (ev):

    -5.2923   3.0284   4.3880   7.2044

          k = 0.0000 0.8000 0.0000 (  2201 PWs)   bands (ev):

    -3.7270   1.2127   4.6188   4.6188

          k = 0.8000 0.0000 0.8000 (  2199 PWs)   bands (ev):

    -2.7760   0.2903   2.7983   4.7793

          k = 0.6000-0.2000 1.0000 (  2204 PWs)   bands (ev):

    -3.2638   0.9160   2.9673   4.2861

     highest occupied level (ev):     8.5030

!    total energy              =     -46.18883230 Ry
     estimated scf accuracy    <          1.4E-09 Ry

     The total energy is the sum of the following terms:
     one-electron contribution =       6.70910267 Ry
     hartree contribution      =       1.24593024 Ry
     xc contribution           =     -34.15015526 Ry
     ewald contribution        =     -19.99370996 Ry

     convergence has been achieved in   9 iterations

     Forces acting on atoms (cartesian axes, Ry/au):

     atom    1 type  1   force =     0.00000000    0.00000000   -0.00000000
     atom    2 type  2   force =     0.00000000    0.00000000   -0.00000000

     Total force =     0.000000     Total SCF correction =     0.000000


     Computing stress (Cartesian axis) and pressure

          total   stress  (Ry/bohr**3)                   (kbar)     P=      -12.14
  -0.00008256  -0.00000000   0.00000000          -12.14       -0.00        0.00
  -0.00000000  -0.00008256  -0.00000000           -0.00      -12.14       -0.00
   0.00000000  -0.00000000  -0.00008256            0.00       -0.00      -12.14


     Writing all to output data dir ./k5.save/
 
     init_run     :      3.02s CPU      3.37s WALL (       1 calls)
     electrons    :     18.14s CPU     19.69s WALL (       1 calls)
     forces       :      0.69s CPU      0.78s WALL (       1 calls)
     stress       :      6.02s CPU      6.24s WALL (       1 calls)

     Called by init_run:
     wfcinit      :      0.36s CPU      0.43s WALL (       1 calls)
     potinit      :      0.10s CPU      0.14s WALL (       1 calls)
     hinit0       :      1.94s CPU      2.06s WALL (       1 calls)

     Called by electrons:
     c_bands      :      7.10s CPU      7.51s WALL (       9 calls)
     sum_band     :      6.20s CPU      6.72s WALL (       9 calls)
     v_of_rho     :      0.68s CPU      0.70s WALL (      10 calls)
     newd         :      4.40s CPU      4.97s WALL (      10 calls)
     mix_rho      :      0.16s CPU      0.17s WALL (       9 calls)

     Called by c_bands:
     init_us_2    :      0.60s CPU      0.62s WALL (     210 calls)
     init_us_2:cp :      0.60s CPU      0.62s WALL (     210 calls)
     ccgdiagg     :      5.60s CPU      5.94s WALL (      90 calls)
     wfcrot       :      1.49s CPU      1.60s WALL (      90 calls)

     Called by *cgdiagg:
     h_psi        :      5.98s CPU      6.24s WALL (    1355 calls)
     s_psi        :      0.46s CPU      0.53s WALL (    2620 calls)

     Called by h_psi:
     h_psi:calbec :      0.30s CPU      0.34s WALL (    1355 calls)
     vloc_psi     :      5.30s CPU      5.51s WALL (    1355 calls)
     add_vuspsi   :      0.27s CPU      0.30s WALL (    1355 calls)
     hs_1psi      :      4.91s CPU      5.14s WALL (    1265 calls)
     s_1psi       :      0.50s CPU      0.55s WALL (    1265 calls)

     General routines
     calbec       :      0.51s CPU      0.59s WALL (    2760 calls)
     fft          :      0.36s CPU      0.38s WALL (      66 calls)
     ffts         :      0.03s CPU      0.03s WALL (      19 calls)
     fftw         :      4.87s CPU      5.04s WALL (    3690 calls)
     interpolate  :      0.08s CPU      0.09s WALL (      10 calls)
 
     Parallel routines
 
     PWSCF        :     28.68s CPU     31.94s WALL

 
   This run was terminated on:  18:43: 6  14Feb2022            

=------------------------------------------------------------------------------=
   JOB DONE.
=------------------------------------------------------------------------------=
