
     Program PWSCF v.7.0 starts on 15Feb2022 at  8: 6:26 

     This program is part of the open-source Quantum ESPRESSO suite
     for quantum simulation of materials; please cite
         "P. Giannozzi et al., J. Phys.:Condens. Matter 21 395502 (2009);
         "P. Giannozzi et al., J. Phys.:Condens. Matter 29 465901 (2017);
         "P. Giannozzi et al., J. Chem. Phys. 152 154105 (2020);
          URL http://www.quantum-espresso.org", 
     in publications or presentations arising from this work. More details at
     http://www.quantum-espresso.org/quote

     Parallel version (MPI), running on     1 processors

     MPI processes distributed on     1 nodes
     87517 MiB available memory on the printing compute node when the environment starts
 
     Waiting for input...
     Reading input from standard input
Warning: card &CELL ignored
Warning: card  CELL_DYNAMICS = 'BFGS', ignored
Warning: card  PRESS=0.1D0, ignored
Warning: card / ignored

     Current dimensions of program PWSCF are:
     Max number of different atomic species (ntypx) = 10
     Max number of k-points (npk) =  40000
     Max angular momentum in pseudopotentials (lmaxx) =  4

     Subspace diagonalization in iterative solution of the eigenvalue problem:
     a serial algorithm will be used

 
     G-vector sticks info
     --------------------
     sticks:   dense  smooth     PW     G-vecs:    dense   smooth      PW
     Sum        1663     559    169                45143     8657    1471
 
     Using Slab Decomposition
 


     bravais-lattice index     =            2
     lattice parameter (alat)  =       9.0000  a.u.
     unit-cell volume          =     182.2500 (a.u.)^3
     number of atoms/cell      =            2
     number of atomic types    =            2
     number of electrons       =         8.00
     number of Kohn-Sham states=            4
     kinetic-energy cutoff     =      50.0000  Ry
     charge density cutoff     =     600.0000  Ry
     scf convergence threshold =      1.0E-08
     mixing beta               =       0.7000
     number of iterations used =            8  plain     mixing
     Exchange-correlation= SLA  PZ   NOGX NOGC
                           (   1   1   0   0   0   0   0)

     celldm(1)=   9.000000  celldm(2)=   0.000000  celldm(3)=   0.000000
     celldm(4)=   0.000000  celldm(5)=   0.000000  celldm(6)=   0.000000

     crystal axes: (cart. coord. in units of alat)
               a(1) = (  -0.500000   0.000000   0.500000 )  
               a(2) = (   0.000000   0.500000   0.500000 )  
               a(3) = (  -0.500000   0.500000   0.000000 )  

     reciprocal axes: (cart. coord. in units 2 pi/alat)
               b(1) = ( -1.000000 -1.000000  1.000000 )  
               b(2) = (  1.000000  1.000000  1.000000 )  
               b(3) = ( -1.000000  1.000000 -1.000000 )  


     PseudoPot. # 1 for B  read from file:
     ./pseudo_dir/B_LDA.UPF
     MD5 check sum: a9970de764dbc07c3a3d9583c605c3b2
     Pseudo is Ultrasoft + core correction, Zval =  3.0
     Generated by new atomic code, or converted to UPF format
     Using radial grid of  781 points,  4 beta functions with: 
                l(1) =   0
                l(2) =   0
                l(3) =   1
                l(4) =   1
     Q(r) pseudized with  8 coefficients,  rinner =    1.100   1.100   1.100


     PseudoPot. # 2 for As read from file:
     ./pseudo_dir/As_LDA.UPF
     MD5 check sum: 6d2e8cbe4ed9d0db7c6ef7a361cc050d
     Pseudo is Ultrasoft + core correction, Zval =  5.0
     Generated by new atomic code, or converted to UPF format
     Using radial grid of  875 points,  6 beta functions with: 
                l(1) =   0
                l(2) =   0
                l(3) =   1
                l(4) =   1
                l(5) =   2
                l(6) =   2
     Q(r) pseudized with  8 coefficients,  rinner =    1.300   1.300   1.300
                                                       1.300   1.300

     atomic species   valence    mass     pseudopotential
        B              3.00    10.81100     B ( 1.00)
        As             5.00    74.92160     As( 1.00)

     24 Sym. Ops. (no inversion) found



   Cartesian axes

     site n.     atom                  positions (alat units)
         1           B   tau(   1) = (   0.0000000   0.0000000   0.0000000  )
         2           As  tau(   2) = (  -0.2500000   0.2500000   0.2500000  )

     number of k points=    16
                       cart. coord. in units 2pi/alat
        k(    1) = (   0.0000000   0.0000000   0.0000000), wk =   0.0092593
        k(    2) = (  -0.1666667   0.1666667  -0.1666667), wk =   0.0740741
        k(    3) = (  -0.3333333   0.3333333  -0.3333333), wk =   0.0740741
        k(    4) = (   0.5000000  -0.5000000   0.5000000), wk =   0.0370370
        k(    5) = (   0.0000000   0.3333333   0.0000000), wk =   0.0555556
        k(    6) = (  -0.1666667   0.5000000  -0.1666667), wk =   0.2222222
        k(    7) = (   0.6666667  -0.3333333   0.6666667), wk =   0.2222222
        k(    8) = (   0.5000000  -0.1666667   0.5000000), wk =   0.2222222
        k(    9) = (   0.3333333  -0.0000000   0.3333333), wk =   0.1111111
        k(   10) = (   0.0000000   0.6666667   0.0000000), wk =   0.0555556
        k(   11) = (   0.8333333  -0.1666667   0.8333333), wk =   0.2222222
        k(   12) = (   0.6666667  -0.0000000   0.6666667), wk =   0.1111111
        k(   13) = (   0.0000000  -1.0000000   0.0000000), wk =   0.0277778
        k(   14) = (   0.6666667  -0.3333333   1.0000000), wk =   0.2222222
        k(   15) = (   0.5000000  -0.1666667   0.8333333), wk =   0.2222222
        k(   16) = (  -0.3333333  -1.0000000   0.0000000), wk =   0.1111111

     Dense  grid:    45143 G-vectors     FFT dimensions: (  50,  50,  50)

     Smooth grid:     8657 G-vectors     FFT dimensions: (  30,  30,  30)

     Estimated max dynamical RAM per process >     172.40 MB

     Initial potential from superposition of free atoms

     starting charge       7.9996, renormalised to       8.0000
     Starting wfcs are    8 randomized atomic wfcs

     total cpu time spent up to now is        3.9 secs

     Self-consistent Calculation

     iteration #  1     ecut=    50.00 Ry     beta= 0.70
     CG style diagonalization
     ethr =  1.00E-02,  avg # of iterations =  2.6

     total cpu time spent up to now is        5.2 secs

     total energy              =     -46.14940559 Ry
     estimated scf accuracy    <       0.14660641 Ry

     iteration #  2     ecut=    50.00 Ry     beta= 0.70
     CG style diagonalization
     ethr =  1.83E-03,  avg # of iterations =  4.2

     total cpu time spent up to now is        6.6 secs

     total energy              =     -46.18240622 Ry
     estimated scf accuracy    <       0.03782551 Ry

     iteration #  3     ecut=    50.00 Ry     beta= 0.70
     CG style diagonalization
     ethr =  4.73E-04,  avg # of iterations =  4.2

     total cpu time spent up to now is        8.0 secs

     total energy              =     -46.19075208 Ry
     estimated scf accuracy    <       0.00041148 Ry

     iteration #  4     ecut=    50.00 Ry     beta= 0.70
     CG style diagonalization
     ethr =  5.14E-06,  avg # of iterations =  4.5

     total cpu time spent up to now is        9.4 secs

     total energy              =     -46.19100857 Ry
     estimated scf accuracy    <       0.00006156 Ry

     iteration #  5     ecut=    50.00 Ry     beta= 0.70
     CG style diagonalization
     ethr =  7.69E-07,  avg # of iterations =  4.1

     total cpu time spent up to now is       10.8 secs

     total energy              =     -46.19102491 Ry
     estimated scf accuracy    <       0.00000193 Ry

     iteration #  6     ecut=    50.00 Ry     beta= 0.70
     CG style diagonalization
     ethr =  2.42E-08,  avg # of iterations =  5.7

     total cpu time spent up to now is       12.5 secs

     total energy              =     -46.19102775 Ry
     estimated scf accuracy    <       0.00000037 Ry

     iteration #  7     ecut=    50.00 Ry     beta= 0.70
     CG style diagonalization
     ethr =  4.64E-09,  avg # of iterations =  4.6

     total cpu time spent up to now is       13.9 secs

     total energy              =     -46.19102790 Ry
     estimated scf accuracy    <       0.00000015 Ry

     iteration #  8     ecut=    50.00 Ry     beta= 0.70
     CG style diagonalization
     ethr =  1.83E-09,  avg # of iterations =  4.3

     total cpu time spent up to now is       15.3 secs

     total energy              =     -46.19102795 Ry
     estimated scf accuracy    <       0.00000001 Ry

     iteration #  9     ecut=    50.00 Ry     beta= 0.70
     CG style diagonalization
     ethr =  1.73E-10,  avg # of iterations =  4.4

     total cpu time spent up to now is       16.8 secs

     End of self-consistent calculation

          k = 0.0000 0.0000 0.0000 (  1067 PWs)   bands (ev):

    -6.9839   8.4958   8.4958   8.4958

          k =-0.1667 0.1667-0.1667 (  1080 PWs)   bands (ev):

    -6.5290   5.5279   7.8095   7.8095

          k =-0.3333 0.3333-0.3333 (  1089 PWs)   bands (ev):

    -5.2579   1.7251   6.9743   6.9743

          k = 0.5000-0.5000 0.5000 (  1068 PWs)   bands (ev):

    -4.1022  -0.3305   6.6695   6.6695

          k = 0.0000 0.3333 0.0000 (  1082 PWs)   bands (ev):

    -6.3759   6.2349   6.7671   6.7671

          k =-0.1667 0.5000-0.1667 (  1083 PWs)   bands (ev):

    -5.3610   3.0115   5.8545   5.9600

          k = 0.6667-0.3333 0.6667 (  1095 PWs)   bands (ev):

    -3.9359   0.2648   4.8211   5.8892

          k = 0.5000-0.1667 0.5000 (  1095 PWs)   bands (ev):

    -4.3787   0.9984   4.4198   6.5534

          k = 0.3333-0.0000 0.3333 (  1077 PWs)   bands (ev):

    -5.7926   3.9491   5.1719   7.6036

          k = 0.0000 0.6667 0.0000 (  1078 PWs)   bands (ev):

    -4.6384   2.5782   5.0118   5.0118

          k = 0.8333-0.1667 0.8333 (  1086 PWs)   bands (ev):

    -3.3649   0.8292   3.4299   4.8077

          k = 0.6667-0.0000 0.6667 (  1113 PWs)   bands (ev):

    -3.1641   0.6748   2.3375   5.4224

          k = 0.0000-1.0000 0.0000 (  1106 PWs)   bands (ev):

    -2.8150   0.0180   4.3869   4.3869

          k = 0.6667-0.3333 1.0000 (  1080 PWs)   bands (ev):

    -4.1772   1.7590   3.5724   5.2470

          k = 0.5000-0.1667 0.8333 (  1090 PWs)   bands (ev):

    -3.1563   0.4708   3.0320   4.5859

          k =-0.3333-1.0000 0.0000 (  1090 PWs)   bands (ev):

    -2.6920   0.3601   3.2829   3.4698

     highest occupied level (ev):     8.4958

!    total energy              =     -46.19102795 Ry
     estimated scf accuracy    <          9.5E-11 Ry

     The total energy is the sum of the following terms:
     one-electron contribution =       6.71235361 Ry
     hartree contribution      =       1.24159121 Ry
     xc contribution           =     -34.15126281 Ry
     ewald contribution        =     -19.99370996 Ry

     convergence has been achieved in   9 iterations

     Forces acting on atoms (cartesian axes, Ry/au):

     atom    1 type  1   force =    -0.00000000    0.00000000    0.00000000
     atom    2 type  2   force =     0.00000000    0.00000000    0.00000000

     Total force =     0.000000     Total SCF correction =     0.000000


     Computing stress (Cartesian axis) and pressure

          total   stress  (Ry/bohr**3)                   (kbar)     P=      -13.45
  -0.00009142  -0.00000000   0.00000000          -13.45       -0.00        0.00
   0.00000000  -0.00009142   0.00000000            0.00      -13.45        0.00
   0.00000000   0.00000000  -0.00009142            0.00        0.00      -13.45


     Writing all to output data dir ./k6.save/
 
     init_run     :      2.29s CPU      2.55s WALL (       1 calls)
     electrons    :     11.82s CPU     12.88s WALL (       1 calls)
     forces       :      0.41s CPU      0.45s WALL (       1 calls)
     stress       :      3.35s CPU      3.49s WALL (       1 calls)

     Called by init_run:
     wfcinit      :      0.28s CPU      0.35s WALL (       1 calls)
     potinit      :      0.05s CPU      0.08s WALL (       1 calls)
     hinit0       :      1.62s CPU      1.70s WALL (       1 calls)

     Called by electrons:
     c_bands      :      5.60s CPU      5.92s WALL (       9 calls)
     sum_band     :      3.61s CPU      3.94s WALL (       9 calls)
     v_of_rho     :      0.32s CPU      0.34s WALL (      10 calls)
     newd         :      2.42s CPU      2.76s WALL (      10 calls)
     mix_rho      :      0.09s CPU      0.10s WALL (       9 calls)

     Called by c_bands:
     init_us_2    :      0.47s CPU      0.50s WALL (     336 calls)
     init_us_2:cp :      0.46s CPU      0.50s WALL (     336 calls)
     ccgdiagg     :      4.40s CPU      4.64s WALL (     144 calls)
     wfcrot       :      1.19s CPU      1.27s WALL (     144 calls)

     Called by *cgdiagg:
     h_psi        :      4.75s CPU      4.96s WALL (    2109 calls)
     s_psi        :      0.27s CPU      0.30s WALL (    4074 calls)

     Called by h_psi:
     h_psi:calbec :      0.28s CPU      0.31s WALL (    2109 calls)
     vloc_psi     :      4.16s CPU      4.33s WALL (    2109 calls)
     add_vuspsi   :      0.18s CPU      0.20s WALL (    2109 calls)
     hs_1psi      :      3.90s CPU      4.09s WALL (    1965 calls)
     s_1psi       :      0.33s CPU      0.36s WALL (    1965 calls)

     General routines
     calbec       :      0.41s CPU      0.46s WALL (    4298 calls)
     fft          :      0.21s CPU      0.23s WALL (      66 calls)
     ffts         :      0.02s CPU      0.02s WALL (      19 calls)
     fftw         :      4.01s CPU      4.17s WALL (    5786 calls)
     interpolate  :      0.05s CPU      0.05s WALL (      10 calls)
 
     Parallel routines
 
     PWSCF        :     18.68s CPU     21.23s WALL

 
   This run was terminated on:   8: 6:47  15Feb2022            

=------------------------------------------------------------------------------=
   JOB DONE.
=------------------------------------------------------------------------------=
