
     Program PWSCF v.7.0 starts on 14Feb2022 at 18:43:40 

     This program is part of the open-source Quantum ESPRESSO suite
     for quantum simulation of materials; please cite
         "P. Giannozzi et al., J. Phys.:Condens. Matter 21 395502 (2009);
         "P. Giannozzi et al., J. Phys.:Condens. Matter 29 465901 (2017);
         "P. Giannozzi et al., J. Chem. Phys. 152 154105 (2020);
          URL http://www.quantum-espresso.org", 
     in publications or presentations arising from this work. More details at
     http://www.quantum-espresso.org/quote

     Parallel version (MPI), running on     1 processors

     MPI processes distributed on     1 nodes
     85150 MiB available memory on the printing compute node when the environment starts
 
     Waiting for input...
     Reading input from standard input
Warning: card &CELL ignored
Warning: card  CELL_DYNAMICS = 'BFGS', ignored
Warning: card  PRESS=0.1D0, ignored
Warning: card / ignored

     Current dimensions of program PWSCF are:
     Max number of different atomic species (ntypx) = 10
     Max number of k-points (npk) =  40000
     Max angular momentum in pseudopotentials (lmaxx) =  4

     Subspace diagonalization in iterative solution of the eigenvalue problem:
     a serial algorithm will be used

 
     G-vector sticks info
     --------------------
     sticks:   dense  smooth     PW     G-vecs:    dense   smooth      PW
     Sum        2527     889    265                83227    17573    2891
 
     Using Slab Decomposition
 


     bravais-lattice index     =            2
     lattice parameter (alat)  =       9.0000  a.u.
     unit-cell volume          =     182.2500 (a.u.)^3
     number of atoms/cell      =            2
     number of atomic types    =            2
     number of electrons       =         8.00
     number of Kohn-Sham states=            4
     kinetic-energy cutoff     =      80.0000  Ry
     charge density cutoff     =     900.0000  Ry
     scf convergence threshold =      1.0E-08
     mixing beta               =       0.7000
     number of iterations used =            8  plain     mixing
     Exchange-correlation= SLA  PZ   NOGX NOGC
                           (   1   1   0   0   0   0   0)

     celldm(1)=   9.000000  celldm(2)=   0.000000  celldm(3)=   0.000000
     celldm(4)=   0.000000  celldm(5)=   0.000000  celldm(6)=   0.000000

     crystal axes: (cart. coord. in units of alat)
               a(1) = (  -0.500000   0.000000   0.500000 )  
               a(2) = (   0.000000   0.500000   0.500000 )  
               a(3) = (  -0.500000   0.500000   0.000000 )  

     reciprocal axes: (cart. coord. in units 2 pi/alat)
               b(1) = ( -1.000000 -1.000000  1.000000 )  
               b(2) = (  1.000000  1.000000  1.000000 )  
               b(3) = ( -1.000000  1.000000 -1.000000 )  


     PseudoPot. # 1 for B  read from file:
     ./pseudo_dir/B_LDA.UPF
     MD5 check sum: a9970de764dbc07c3a3d9583c605c3b2
     Pseudo is Ultrasoft + core correction, Zval =  3.0
     Generated by new atomic code, or converted to UPF format
     Using radial grid of  781 points,  4 beta functions with: 
                l(1) =   0
                l(2) =   0
                l(3) =   1
                l(4) =   1
     Q(r) pseudized with  8 coefficients,  rinner =    1.100   1.100   1.100


     PseudoPot. # 2 for As read from file:
     ./pseudo_dir/As_LDA.UPF
     MD5 check sum: 6d2e8cbe4ed9d0db7c6ef7a361cc050d
     Pseudo is Ultrasoft + core correction, Zval =  5.0
     Generated by new atomic code, or converted to UPF format
     Using radial grid of  875 points,  6 beta functions with: 
                l(1) =   0
                l(2) =   0
                l(3) =   1
                l(4) =   1
                l(5) =   2
                l(6) =   2
     Q(r) pseudized with  8 coefficients,  rinner =    1.300   1.300   1.300
                                                       1.300   1.300

     atomic species   valence    mass     pseudopotential
        B              3.00    10.81100     B ( 1.00)
        As             5.00    74.92160     As( 1.00)

     24 Sym. Ops. (no inversion) found



   Cartesian axes

     site n.     atom                  positions (alat units)
         1           B   tau(   1) = (   0.0000000   0.0000000   0.0000000  )
         2           As  tau(   2) = (  -0.2500000   0.2500000   0.2500000  )

     number of k points=    16
                       cart. coord. in units 2pi/alat
        k(    1) = (   0.0000000   0.0000000   0.0000000), wk =   0.0092593
        k(    2) = (  -0.1666667   0.1666667  -0.1666667), wk =   0.0740741
        k(    3) = (  -0.3333333   0.3333333  -0.3333333), wk =   0.0740741
        k(    4) = (   0.5000000  -0.5000000   0.5000000), wk =   0.0370370
        k(    5) = (   0.0000000   0.3333333   0.0000000), wk =   0.0555556
        k(    6) = (  -0.1666667   0.5000000  -0.1666667), wk =   0.2222222
        k(    7) = (   0.6666667  -0.3333333   0.6666667), wk =   0.2222222
        k(    8) = (   0.5000000  -0.1666667   0.5000000), wk =   0.2222222
        k(    9) = (   0.3333333  -0.0000000   0.3333333), wk =   0.1111111
        k(   10) = (   0.0000000   0.6666667   0.0000000), wk =   0.0555556
        k(   11) = (   0.8333333  -0.1666667   0.8333333), wk =   0.2222222
        k(   12) = (   0.6666667  -0.0000000   0.6666667), wk =   0.1111111
        k(   13) = (   0.0000000  -1.0000000   0.0000000), wk =   0.0277778
        k(   14) = (   0.6666667  -0.3333333   1.0000000), wk =   0.2222222
        k(   15) = (   0.5000000  -0.1666667   0.8333333), wk =   0.2222222
        k(   16) = (  -0.3333333  -1.0000000   0.0000000), wk =   0.1111111

     Dense  grid:    83227 G-vectors     FFT dimensions: (  64,  64,  64)

     Smooth grid:    17573 G-vectors     FFT dimensions: (  40,  40,  40)

     Estimated max dynamical RAM per process >     317.87 MB

     Initial potential from superposition of free atoms

     starting charge       7.9996, renormalised to       8.0000
     Starting wfcs are    8 randomized atomic wfcs

     total cpu time spent up to now is        4.9 secs

     Self-consistent Calculation

     iteration #  1     ecut=    80.00 Ry     beta= 0.70
     CG style diagonalization
     ethr =  1.00E-02,  avg # of iterations =  2.7

     total cpu time spent up to now is        7.3 secs

     total energy              =     -46.14985038 Ry
     estimated scf accuracy    <       0.14672891 Ry

     iteration #  2     ecut=    80.00 Ry     beta= 0.70
     CG style diagonalization
     ethr =  1.83E-03,  avg # of iterations =  4.2

     total cpu time spent up to now is       10.0 secs

     total energy              =     -46.18296276 Ry
     estimated scf accuracy    <       0.03750596 Ry

     iteration #  3     ecut=    80.00 Ry     beta= 0.70
     CG style diagonalization
     ethr =  4.69E-04,  avg # of iterations =  4.1

     total cpu time spent up to now is       12.6 secs

     total energy              =     -46.19126065 Ry
     estimated scf accuracy    <       0.00039242 Ry

     iteration #  4     ecut=    80.00 Ry     beta= 0.70
     CG style diagonalization
     ethr =  4.91E-06,  avg # of iterations =  4.9

     total cpu time spent up to now is       15.6 secs

     total energy              =     -46.19157957 Ry
     estimated scf accuracy    <       0.00012393 Ry

     iteration #  5     ecut=    80.00 Ry     beta= 0.70
     CG style diagonalization
     ethr =  1.55E-06,  avg # of iterations =  4.3

     total cpu time spent up to now is       18.3 secs

     total energy              =     -46.19161745 Ry
     estimated scf accuracy    <       0.00001292 Ry

     iteration #  6     ecut=    80.00 Ry     beta= 0.70
     CG style diagonalization
     ethr =  1.62E-07,  avg # of iterations =  5.1

     total cpu time spent up to now is       21.2 secs

     total energy              =     -46.19162596 Ry
     estimated scf accuracy    <       0.00000126 Ry

     iteration #  7     ecut=    80.00 Ry     beta= 0.70
     CG style diagonalization
     ethr =  1.58E-08,  avg # of iterations =  5.6

     total cpu time spent up to now is       24.3 secs

     total energy              =     -46.19162688 Ry
     estimated scf accuracy    <       0.00000160 Ry

     iteration #  8     ecut=    80.00 Ry     beta= 0.70
     CG style diagonalization
     ethr =  1.58E-08,  avg # of iterations =  4.4

     total cpu time spent up to now is       27.1 secs

     total energy              =     -46.19162735 Ry
     estimated scf accuracy    <       0.00000009 Ry

     iteration #  9     ecut=    80.00 Ry     beta= 0.70
     CG style diagonalization
     ethr =  1.14E-09,  avg # of iterations =  4.4

     total cpu time spent up to now is       29.8 secs

     End of self-consistent calculation

          k = 0.0000 0.0000 0.0000 (  2229 PWs)   bands (ev):

    -6.9848   8.4935   8.4935   8.4935

          k =-0.1667 0.1667-0.1667 (  2187 PWs)   bands (ev):

    -6.5301   5.5260   7.8074   7.8074

          k =-0.3333 0.3333-0.3333 (  2205 PWs)   bands (ev):

    -5.2592   1.7236   6.9722   6.9722

          k = 0.5000-0.5000 0.5000 (  2186 PWs)   bands (ev):

    -4.1038  -0.3316   6.6674   6.6674

          k = 0.0000 0.3333 0.0000 (  2205 PWs)   bands (ev):

    -6.3769   6.2327   6.7651   6.7651

          k =-0.1667 0.5000-0.1667 (  2189 PWs)   bands (ev):

    -5.3622   3.0098   5.8526   5.9581

          k = 0.6667-0.3333 0.6667 (  2207 PWs)   bands (ev):

    -3.9374   0.2636   4.8193   5.8873

          k = 0.5000-0.1667 0.5000 (  2211 PWs)   bands (ev):

    -4.3801   0.9970   4.4181   6.5514

          k = 0.3333-0.0000 0.3333 (  2191 PWs)   bands (ev):

    -5.7938   3.9472   5.1701   7.6015

          k = 0.0000 0.6667 0.0000 (  2181 PWs)   bands (ev):

    -4.6398   2.5764   5.0101   5.0101

          k = 0.8333-0.1667 0.8333 (  2205 PWs)   bands (ev):

    -3.3665   0.8278   3.4284   4.8060

          k = 0.6667-0.0000 0.6667 (  2215 PWs)   bands (ev):

    -3.1658   0.6736   2.3362   5.4207

          k = 0.0000-1.0000 0.0000 (  2200 PWs)   bands (ev):

    -2.8168   0.0169   4.3852   4.3852

          k = 0.6667-0.3333 1.0000 (  2202 PWs)   bands (ev):

    -4.1787   1.7574   3.5708   5.2452

          k = 0.5000-0.1667 0.8333 (  2210 PWs)   bands (ev):

    -3.1580   0.4695   3.0304   4.5842

          k =-0.3333-1.0000 0.0000 (  2208 PWs)   bands (ev):

    -2.6939   0.3588   3.2814   3.4683

     highest occupied level (ev):     8.4935

!    total energy              =     -46.19162738 Ry
     estimated scf accuracy    <          7.4E-10 Ry

     The total energy is the sum of the following terms:
     one-electron contribution =       6.70871025 Ry
     hartree contribution      =       1.24141805 Ry
     xc contribution           =     -34.14804572 Ry
     ewald contribution        =     -19.99370996 Ry

     convergence has been achieved in   9 iterations

     Forces acting on atoms (cartesian axes, Ry/au):

     atom    1 type  1   force =     0.00000000    0.00000000   -0.00000000
     atom    2 type  2   force =    -0.00000000   -0.00000000    0.00000000

     Total force =     0.000000     Total SCF correction =     0.000000


     Computing stress (Cartesian axis) and pressure

          total   stress  (Ry/bohr**3)                   (kbar)     P=      -13.36
  -0.00009079   0.00000000  -0.00000000          -13.36        0.00       -0.00
  -0.00000000  -0.00009079   0.00000000           -0.00      -13.36        0.00
   0.00000000   0.00000000  -0.00009079            0.00        0.00      -13.36


     Writing all to output data dir ./k6.save/
 
     init_run     :      3.23s CPU      3.57s WALL (       1 calls)
     electrons    :     22.98s CPU     24.93s WALL (       1 calls)
     forces       :      0.74s CPU      0.82s WALL (       1 calls)
     stress       :      6.25s CPU      6.47s WALL (       1 calls)

     Called by init_run:
     wfcinit      :      0.57s CPU      0.65s WALL (       1 calls)
     potinit      :      0.10s CPU      0.14s WALL (       1 calls)
     hinit0       :      1.94s CPU      2.05s WALL (       1 calls)

     Called by electrons:
     c_bands      :     11.40s CPU     12.15s WALL (       9 calls)
     sum_band     :      6.71s CPU      7.29s WALL (       9 calls)
     v_of_rho     :      0.67s CPU      0.70s WALL (      10 calls)
     newd         :      4.41s CPU      5.00s WALL (      10 calls)
     mix_rho      :      0.15s CPU      0.17s WALL (       9 calls)

     Called by c_bands:
     init_us_2    :      0.96s CPU      1.00s WALL (     336 calls)
     init_us_2:cp :      0.95s CPU      0.99s WALL (     336 calls)
     ccgdiagg     :      9.01s CPU      9.63s WALL (     144 calls)
     wfcrot       :      2.39s CPU      2.54s WALL (     144 calls)

     Called by *cgdiagg:
     h_psi        :      9.58s CPU     10.07s WALL (    2172 calls)
     s_psi        :      0.76s CPU      0.89s WALL (    4200 calls)

     Called by h_psi:
     h_psi:calbec :      0.51s CPU      0.56s WALL (    2172 calls)
     vloc_psi     :      8.47s CPU      8.85s WALL (    2172 calls)
     add_vuspsi   :      0.44s CPU      0.50s WALL (    2172 calls)
     hs_1psi      :      7.88s CPU      8.32s WALL (    2028 calls)
     s_1psi       :      0.81s CPU      0.92s WALL (    2028 calls)

     General routines
     calbec       :      0.85s CPU      0.99s WALL (    4424 calls)
     fft          :      0.36s CPU      0.39s WALL (      66 calls)
     ffts         :      0.03s CPU      0.04s WALL (      19 calls)
     fftw         :      7.82s CPU      8.14s WALL (    5912 calls)
     interpolate  :      0.09s CPU      0.10s WALL (      10 calls)
 
     Parallel routines
 
     PWSCF        :     34.03s CPU     37.70s WALL

 
   This run was terminated on:  18:44:17  14Feb2022            

=------------------------------------------------------------------------------=
   JOB DONE.
=------------------------------------------------------------------------------=
