
     Program PWSCF v.7.0 starts on 15Feb2022 at  8:27:35 

     This program is part of the open-source Quantum ESPRESSO suite
     for quantum simulation of materials; please cite
         "P. Giannozzi et al., J. Phys.:Condens. Matter 21 395502 (2009);
         "P. Giannozzi et al., J. Phys.:Condens. Matter 29 465901 (2017);
         "P. Giannozzi et al., J. Chem. Phys. 152 154105 (2020);
          URL http://www.quantum-espresso.org", 
     in publications or presentations arising from this work. More details at
     http://www.quantum-espresso.org/quote

     Parallel version (MPI), running on     1 processors

     MPI processes distributed on     1 nodes
     84305 MiB available memory on the printing compute node when the environment starts
 
     Waiting for input...
     Reading input from standard input
Warning: card &CELL ignored
Warning: card  CELL_DYNAMICS = 'BFGS', ignored
Warning: card  PRESS=0.1D0, ignored
Warning: card / ignored

     Current dimensions of program PWSCF are:
     Max number of different atomic species (ntypx) = 10
     Max number of k-points (npk) =  40000
     Max angular momentum in pseudopotentials (lmaxx) =  4

     Subspace diagonalization in iterative solution of the eigenvalue problem:
     a serial algorithm will be used

 
     G-vector sticks info
     --------------------
     sticks:   dense  smooth     PW     G-vecs:    dense   smooth      PW
     Sum        1663     559    169                45143     8657    1471
 
     Using Slab Decomposition
 


     bravais-lattice index     =            2
     lattice parameter (alat)  =       9.0000  a.u.
     unit-cell volume          =     182.2500 (a.u.)^3
     number of atoms/cell      =            2
     number of atomic types    =            2
     number of electrons       =         8.00
     number of Kohn-Sham states=            4
     kinetic-energy cutoff     =      50.0000  Ry
     charge density cutoff     =     600.0000  Ry
     scf convergence threshold =      1.0E-08
     mixing beta               =       0.7000
     number of iterations used =            8  plain     mixing
     Exchange-correlation= SLA  PZ   NOGX NOGC
                           (   1   1   0   0   0   0   0)

     celldm(1)=   9.000000  celldm(2)=   0.000000  celldm(3)=   0.000000
     celldm(4)=   0.000000  celldm(5)=   0.000000  celldm(6)=   0.000000

     crystal axes: (cart. coord. in units of alat)
               a(1) = (  -0.500000   0.000000   0.500000 )  
               a(2) = (   0.000000   0.500000   0.500000 )  
               a(3) = (  -0.500000   0.500000   0.000000 )  

     reciprocal axes: (cart. coord. in units 2 pi/alat)
               b(1) = ( -1.000000 -1.000000  1.000000 )  
               b(2) = (  1.000000  1.000000  1.000000 )  
               b(3) = ( -1.000000  1.000000 -1.000000 )  


     PseudoPot. # 1 for B  read from file:
     ./pseudo_dir/B_LDA.UPF
     MD5 check sum: a9970de764dbc07c3a3d9583c605c3b2
     Pseudo is Ultrasoft + core correction, Zval =  3.0
     Generated by new atomic code, or converted to UPF format
     Using radial grid of  781 points,  4 beta functions with: 
                l(1) =   0
                l(2) =   0
                l(3) =   1
                l(4) =   1
     Q(r) pseudized with  8 coefficients,  rinner =    1.100   1.100   1.100


     PseudoPot. # 2 for As read from file:
     ./pseudo_dir/As_LDA.UPF
     MD5 check sum: 6d2e8cbe4ed9d0db7c6ef7a361cc050d
     Pseudo is Ultrasoft + core correction, Zval =  5.0
     Generated by new atomic code, or converted to UPF format
     Using radial grid of  875 points,  6 beta functions with: 
                l(1) =   0
                l(2) =   0
                l(3) =   1
                l(4) =   1
                l(5) =   2
                l(6) =   2
     Q(r) pseudized with  8 coefficients,  rinner =    1.300   1.300   1.300
                                                       1.300   1.300

     atomic species   valence    mass     pseudopotential
        B              3.00    10.81100     B ( 1.00)
        As             5.00    74.92160     As( 1.00)

     24 Sym. Ops. (no inversion) found



   Cartesian axes

     site n.     atom                  positions (alat units)
         1           B   tau(   1) = (   0.0000000   0.0000000   0.0000000  )
         2           As  tau(   2) = (  -0.2500000   0.2500000   0.2500000  )

     number of k points=    20
                       cart. coord. in units 2pi/alat
        k(    1) = (   0.0000000   0.0000000   0.0000000), wk =   0.0058309
        k(    2) = (  -0.1428571   0.1428571  -0.1428571), wk =   0.0466472
        k(    3) = (  -0.2857143   0.2857143  -0.2857143), wk =   0.0466472
        k(    4) = (  -0.4285714   0.4285714  -0.4285714), wk =   0.0466472
        k(    5) = (   0.0000000   0.2857143   0.0000000), wk =   0.0349854
        k(    6) = (  -0.1428571   0.4285714  -0.1428571), wk =   0.1399417
        k(    7) = (  -0.2857143   0.5714286  -0.2857143), wk =   0.1399417
        k(    8) = (   0.5714286  -0.2857143   0.5714286), wk =   0.1399417
        k(    9) = (   0.4285714  -0.1428571   0.4285714), wk =   0.1399417
        k(   10) = (   0.2857143  -0.0000000   0.2857143), wk =   0.0699708
        k(   11) = (   0.0000000   0.5714286   0.0000000), wk =   0.0349854
        k(   12) = (  -0.1428571   0.7142857  -0.1428571), wk =   0.1399417
        k(   13) = (   0.7142857  -0.1428571   0.7142857), wk =   0.1399417
        k(   14) = (   0.5714286  -0.0000000   0.5714286), wk =   0.0699708
        k(   15) = (   0.0000000   0.8571429   0.0000000), wk =   0.0349854
        k(   16) = (   0.8571429  -0.0000000   0.8571429), wk =   0.0699708
        k(   17) = (  -0.2857143   0.5714286   0.0000000), wk =   0.1399417
        k(   18) = (   0.5714286  -0.2857143   0.8571429), wk =   0.2798834
        k(   19) = (   0.7142857  -0.1428571   1.0000000), wk =   0.1399417
        k(   20) = (   0.5714286  -0.0000000   0.8571429), wk =   0.1399417

     Dense  grid:    45143 G-vectors     FFT dimensions: (  50,  50,  50)

     Smooth grid:     8657 G-vectors     FFT dimensions: (  30,  30,  30)

     Estimated max dynamical RAM per process >     172.66 MB

     Initial potential from superposition of free atoms

     starting charge       7.9996, renormalised to       8.0000
     Starting wfcs are    8 randomized atomic wfcs

     total cpu time spent up to now is        4.8 secs

     Self-consistent Calculation

     iteration #  1     ecut=    50.00 Ry     beta= 0.70
     CG style diagonalization
     ethr =  1.00E-02,  avg # of iterations =  2.6

     total cpu time spent up to now is        6.2 secs

     total energy              =     -46.15043842 Ry
     estimated scf accuracy    <       0.14571517 Ry

     iteration #  2     ecut=    50.00 Ry     beta= 0.70
     CG style diagonalization
     ethr =  1.82E-03,  avg # of iterations =  4.2

     total cpu time spent up to now is        7.8 secs

     total energy              =     -46.18334292 Ry
     estimated scf accuracy    <       0.03760899 Ry

     iteration #  3     ecut=    50.00 Ry     beta= 0.70
     CG style diagonalization
     ethr =  4.70E-04,  avg # of iterations =  4.1

     total cpu time spent up to now is        9.3 secs

     total energy              =     -46.19163319 Ry
     estimated scf accuracy    <       0.00039045 Ry

     iteration #  4     ecut=    50.00 Ry     beta= 0.70
     CG style diagonalization
     ethr =  4.88E-06,  avg # of iterations =  4.7

     total cpu time spent up to now is       11.0 secs

     total energy              =     -46.19192519 Ry
     estimated scf accuracy    <       0.00008712 Ry

     iteration #  5     ecut=    50.00 Ry     beta= 0.70
     CG style diagonalization
     ethr =  1.09E-06,  avg # of iterations =  4.1

     total cpu time spent up to now is       12.5 secs

     total energy              =     -46.19194668 Ry
     estimated scf accuracy    <       0.00000248 Ry

     iteration #  6     ecut=    50.00 Ry     beta= 0.70
     CG style diagonalization
     ethr =  3.10E-08,  avg # of iterations =  5.6

     total cpu time spent up to now is       14.4 secs

     total energy              =     -46.19194985 Ry
     estimated scf accuracy    <       0.00000033 Ry

     iteration #  7     ecut=    50.00 Ry     beta= 0.70
     CG style diagonalization
     ethr =  4.14E-09,  avg # of iterations =  4.8

     total cpu time spent up to now is       16.1 secs

     total energy              =     -46.19195000 Ry
     estimated scf accuracy    <       0.00000017 Ry

     iteration #  8     ecut=    50.00 Ry     beta= 0.70
     CG style diagonalization
     ethr =  2.08E-09,  avg # of iterations =  4.4

     total cpu time spent up to now is       17.7 secs

     total energy              =     -46.19195005 Ry
     estimated scf accuracy    <       0.00000002 Ry

     iteration #  9     ecut=    50.00 Ry     beta= 0.70
     CG style diagonalization
     ethr =  2.78E-10,  avg # of iterations =  4.1

     total cpu time spent up to now is       19.2 secs

     End of self-consistent calculation

          k = 0.0000 0.0000 0.0000 (  1067 PWs)   bands (ev):

    -6.9862   8.4920   8.4920   8.4920

          k =-0.1429 0.1429-0.1429 (  1073 PWs)   bands (ev):

    -6.6510   6.0992   7.9468   7.9468

          k =-0.2857 0.2857-0.2857 (  1089 PWs)   bands (ev):

    -5.6884   2.7258   7.1650   7.1650

          k =-0.4286 0.4286-0.4286 (  1089 PWs)   bands (ev):

    -4.4068   0.1360   6.7226   6.7226

          k = 0.0000 0.2857 0.0000 (  1074 PWs)   bands (ev):

    -6.5385   6.7164   7.0788   7.0788

          k =-0.1429 0.4286-0.1429 (  1081 PWs)   bands (ev):

    -5.7790   3.8513   6.2885   6.4365

          k =-0.2857 0.5714-0.2857 (  1084 PWs)   bands (ev):

    -4.5388   1.0321   5.5272   5.9930

          k = 0.5714-0.2857 0.5714 (  1086 PWs)   bands (ev):

    -3.8857  -0.0308   4.9510   6.2536

          k = 0.4286-0.1429 0.4286 (  1093 PWs)   bands (ev):

    -4.9844   1.8987   4.9190   6.9811

          k = 0.2857-0.0000 0.2857 (  1073 PWs)   bands (ev):

    -6.1033   4.6656   5.7642   7.8490

          k = 0.0000 0.5714 0.0000 (  1086 PWs)   bands (ev):

    -5.2364   3.6240   5.4081   5.4081

          k =-0.1429 0.7143-0.1429 (  1081 PWs)   bands (ev):

    -4.1635   1.7440   4.1683   5.0279

          k = 0.7143-0.1429 0.7143 (  1095 PWs)   bands (ev):

    -3.2021   0.4413   2.9091   5.2550

          k = 0.5714-0.0000 0.5714 (  1095 PWs)   bands (ev):

    -3.8452   1.2193   2.7731   6.0218

          k = 0.0000 0.8571 0.0000 (  1082 PWs)   bands (ev):

    -3.3593   0.6961   4.5001   4.5001

          k = 0.8571-0.0000 0.8571 (  1096 PWs)   bands (ev):

    -2.7773   0.1593   3.3406   4.5835

          k =-0.2857 0.5714 0.0000 (  1083 PWs)   bands (ev):

    -4.8549   2.5849   4.1949   5.9506

          k = 0.5714-0.2857 0.8571 (  1092 PWs)   bands (ev):

    -3.6529   0.7122   3.5254   5.1775

          k = 0.7143-0.1429 1.0000 (  1093 PWs)   bands (ev):

    -3.1538   0.7324   3.4632   3.9876

          k = 0.5714-0.0000 0.8571 (  1090 PWs)   bands (ev):

    -2.8247   0.5470   2.5345   4.1359

     highest occupied level (ev):     8.4920

!    total energy              =     -46.19195006 Ry
     estimated scf accuracy    <          6.6E-11 Ry

     The total energy is the sum of the following terms:
     one-electron contribution =       6.71239085 Ry
     hartree contribution      =       1.23979716 Ry
     xc contribution           =     -34.15042811 Ry
     ewald contribution        =     -19.99370996 Ry

     convergence has been achieved in   9 iterations

     Forces acting on atoms (cartesian axes, Ry/au):

     atom    1 type  1   force =     0.00000000    0.00000000    0.00000000
     atom    2 type  2   force =     0.00000000    0.00000000   -0.00000000

     Total force =     0.000000     Total SCF correction =     0.000000


     Computing stress (Cartesian axis) and pressure

          total   stress  (Ry/bohr**3)                   (kbar)     P=      -13.78
  -0.00009370   0.00000000  -0.00000000          -13.78        0.00       -0.00
   0.00000000  -0.00009370   0.00000000            0.00      -13.78        0.00
   0.00000000   0.00000000  -0.00009370            0.00        0.00      -13.78


     Writing all to output data dir ./k7.save/
 
     init_run     :      2.35s CPU      2.79s WALL (       1 calls)
     electrons    :     13.33s CPU     14.53s WALL (       1 calls)
     forces       :      0.42s CPU      0.46s WALL (       1 calls)
     stress       :      3.45s CPU      3.60s WALL (       1 calls)

     Called by init_run:
     wfcinit      :      0.35s CPU      0.48s WALL (       1 calls)
     potinit      :      0.05s CPU      0.08s WALL (       1 calls)
     hinit0       :      1.62s CPU      1.73s WALL (       1 calls)

     Called by electrons:
     c_bands      :      6.94s CPU      7.41s WALL (       9 calls)
     sum_band     :      3.75s CPU      4.10s WALL (       9 calls)
     v_of_rho     :      0.33s CPU      0.35s WALL (      10 calls)
     newd         :      2.43s CPU      2.76s WALL (      10 calls)
     mix_rho      :      0.08s CPU      0.09s WALL (       9 calls)

     Called by c_bands:
     init_us_2    :      0.59s CPU      0.63s WALL (     420 calls)
     init_us_2:cp :      0.58s CPU      0.62s WALL (     420 calls)
     ccgdiagg     :      5.46s CPU      5.83s WALL (     180 calls)
     wfcrot       :      1.46s CPU      1.61s WALL (     180 calls)

     Called by *cgdiagg:
     h_psi        :      5.83s CPU      6.18s WALL (    2642 calls)
     s_psi        :      0.36s CPU      0.41s WALL (    5104 calls)

     Called by h_psi:
     h_psi:calbec :      0.36s CPU      0.44s WALL (    2642 calls)
     vloc_psi     :      5.08s CPU      5.33s WALL (    2642 calls)
     add_vuspsi   :      0.23s CPU      0.25s WALL (    2642 calls)
     hs_1psi      :      4.81s CPU      5.09s WALL (    2462 calls)
     s_1psi       :      0.45s CPU      0.49s WALL (    2462 calls)

     General routines
     calbec       :      0.53s CPU      0.64s WALL (    5384 calls)
     fft          :      0.20s CPU      0.24s WALL (      66 calls)
     ffts         :      0.01s CPU      0.02s WALL (      19 calls)
     fftw         :      4.91s CPU      5.15s WALL (    7244 calls)
     interpolate  :      0.05s CPU      0.05s WALL (      10 calls)
 
     Parallel routines
 
     PWSCF        :     20.38s CPU     24.02s WALL

 
   This run was terminated on:   8:27:59  15Feb2022            

=------------------------------------------------------------------------------=
   JOB DONE.
=------------------------------------------------------------------------------=
