
     Program PWSCF v.7.0 starts on 15Feb2022 at  8: 7:13 

     This program is part of the open-source Quantum ESPRESSO suite
     for quantum simulation of materials; please cite
         "P. Giannozzi et al., J. Phys.:Condens. Matter 21 395502 (2009);
         "P. Giannozzi et al., J. Phys.:Condens. Matter 29 465901 (2017);
         "P. Giannozzi et al., J. Chem. Phys. 152 154105 (2020);
          URL http://www.quantum-espresso.org", 
     in publications or presentations arising from this work. More details at
     http://www.quantum-espresso.org/quote

     Parallel version (MPI), running on     1 processors

     MPI processes distributed on     1 nodes
     86796 MiB available memory on the printing compute node when the environment starts
 
     Waiting for input...
     Reading input from standard input
Warning: card &CELL ignored
Warning: card  CELL_DYNAMICS = 'BFGS', ignored
Warning: card  PRESS=0.1D0, ignored
Warning: card / ignored

     Current dimensions of program PWSCF are:
     Max number of different atomic species (ntypx) = 10
     Max number of k-points (npk) =  40000
     Max angular momentum in pseudopotentials (lmaxx) =  4

     Subspace diagonalization in iterative solution of the eigenvalue problem:
     a serial algorithm will be used

 
     G-vector sticks info
     --------------------
     sticks:   dense  smooth     PW     G-vecs:    dense   smooth      PW
     Sum        1663     559    169                45143     8657    1471
 
     Using Slab Decomposition
 


     bravais-lattice index     =            2
     lattice parameter (alat)  =       9.0000  a.u.
     unit-cell volume          =     182.2500 (a.u.)^3
     number of atoms/cell      =            2
     number of atomic types    =            2
     number of electrons       =         8.00
     number of Kohn-Sham states=            4
     kinetic-energy cutoff     =      50.0000  Ry
     charge density cutoff     =     600.0000  Ry
     scf convergence threshold =      1.0E-08
     mixing beta               =       0.7000
     number of iterations used =            8  plain     mixing
     Exchange-correlation= SLA  PZ   NOGX NOGC
                           (   1   1   0   0   0   0   0)

     celldm(1)=   9.000000  celldm(2)=   0.000000  celldm(3)=   0.000000
     celldm(4)=   0.000000  celldm(5)=   0.000000  celldm(6)=   0.000000

     crystal axes: (cart. coord. in units of alat)
               a(1) = (  -0.500000   0.000000   0.500000 )  
               a(2) = (   0.000000   0.500000   0.500000 )  
               a(3) = (  -0.500000   0.500000   0.000000 )  

     reciprocal axes: (cart. coord. in units 2 pi/alat)
               b(1) = ( -1.000000 -1.000000  1.000000 )  
               b(2) = (  1.000000  1.000000  1.000000 )  
               b(3) = ( -1.000000  1.000000 -1.000000 )  


     PseudoPot. # 1 for B  read from file:
     ./pseudo_dir/B_LDA.UPF
     MD5 check sum: a9970de764dbc07c3a3d9583c605c3b2
     Pseudo is Ultrasoft + core correction, Zval =  3.0
     Generated by new atomic code, or converted to UPF format
     Using radial grid of  781 points,  4 beta functions with: 
                l(1) =   0
                l(2) =   0
                l(3) =   1
                l(4) =   1
     Q(r) pseudized with  8 coefficients,  rinner =    1.100   1.100   1.100


     PseudoPot. # 2 for As read from file:
     ./pseudo_dir/As_LDA.UPF
     MD5 check sum: 6d2e8cbe4ed9d0db7c6ef7a361cc050d
     Pseudo is Ultrasoft + core correction, Zval =  5.0
     Generated by new atomic code, or converted to UPF format
     Using radial grid of  875 points,  6 beta functions with: 
                l(1) =   0
                l(2) =   0
                l(3) =   1
                l(4) =   1
                l(5) =   2
                l(6) =   2
     Q(r) pseudized with  8 coefficients,  rinner =    1.300   1.300   1.300
                                                       1.300   1.300

     atomic species   valence    mass     pseudopotential
        B              3.00    10.81100     B ( 1.00)
        As             5.00    74.92160     As( 1.00)

     24 Sym. Ops. (no inversion) found



   Cartesian axes

     site n.     atom                  positions (alat units)
         1           B   tau(   1) = (   0.0000000   0.0000000   0.0000000  )
         2           As  tau(   2) = (  -0.2500000   0.2500000   0.2500000  )

     number of k points=    29
                       cart. coord. in units 2pi/alat
        k(    1) = (   0.0000000   0.0000000   0.0000000), wk =   0.0039062
        k(    2) = (  -0.1250000   0.1250000  -0.1250000), wk =   0.0312500
        k(    3) = (  -0.2500000   0.2500000  -0.2500000), wk =   0.0312500
        k(    4) = (  -0.3750000   0.3750000  -0.3750000), wk =   0.0312500
        k(    5) = (   0.5000000  -0.5000000   0.5000000), wk =   0.0156250
        k(    6) = (   0.0000000   0.2500000   0.0000000), wk =   0.0234375
        k(    7) = (  -0.1250000   0.3750000  -0.1250000), wk =   0.0937500
        k(    8) = (  -0.2500000   0.5000000  -0.2500000), wk =   0.0937500
        k(    9) = (   0.6250000  -0.3750000   0.6250000), wk =   0.0937500
        k(   10) = (   0.5000000  -0.2500000   0.5000000), wk =   0.0937500
        k(   11) = (   0.3750000  -0.1250000   0.3750000), wk =   0.0937500
        k(   12) = (   0.2500000   0.0000000   0.2500000), wk =   0.0468750
        k(   13) = (   0.0000000   0.5000000   0.0000000), wk =   0.0234375
        k(   14) = (  -0.1250000   0.6250000  -0.1250000), wk =   0.0937500
        k(   15) = (   0.7500000  -0.2500000   0.7500000), wk =   0.0937500
        k(   16) = (   0.6250000  -0.1250000   0.6250000), wk =   0.0937500
        k(   17) = (   0.5000000   0.0000000   0.5000000), wk =   0.0468750
        k(   18) = (   0.0000000   0.7500000   0.0000000), wk =   0.0234375
        k(   19) = (   0.8750000  -0.1250000   0.8750000), wk =   0.0937500
        k(   20) = (   0.7500000   0.0000000   0.7500000), wk =   0.0468750
        k(   21) = (   0.0000000  -1.0000000   0.0000000), wk =   0.0117188
        k(   22) = (  -0.2500000   0.5000000   0.0000000), wk =   0.0937500
        k(   23) = (   0.6250000  -0.3750000   0.8750000), wk =   0.1875000
        k(   24) = (   0.5000000  -0.2500000   0.7500000), wk =   0.0937500
        k(   25) = (   0.7500000  -0.2500000   1.0000000), wk =   0.0937500
        k(   26) = (   0.6250000  -0.1250000   0.8750000), wk =   0.1875000
        k(   27) = (   0.5000000   0.0000000   0.7500000), wk =   0.0937500
        k(   28) = (  -0.2500000  -1.0000000   0.0000000), wk =   0.0468750
        k(   29) = (  -0.5000000  -1.0000000   0.0000000), wk =   0.0234375

     Dense  grid:    45143 G-vectors     FFT dimensions: (  50,  50,  50)

     Smooth grid:     8657 G-vectors     FFT dimensions: (  30,  30,  30)

     Estimated max dynamical RAM per process >     173.26 MB

     Initial potential from superposition of free atoms

     starting charge       7.9996, renormalised to       8.0000
     Starting wfcs are    8 randomized atomic wfcs

     total cpu time spent up to now is        4.1 secs

     Self-consistent Calculation

     iteration #  1     ecut=    50.00 Ry     beta= 0.70
     CG style diagonalization
     ethr =  1.00E-02,  avg # of iterations =  2.6

     total cpu time spent up to now is        5.8 secs

     total energy              =     -46.15087895 Ry
     estimated scf accuracy    <       0.14544327 Ry

     iteration #  2     ecut=    50.00 Ry     beta= 0.70
     CG style diagonalization
     ethr =  1.82E-03,  avg # of iterations =  4.2

     total cpu time spent up to now is        7.9 secs

     total energy              =     -46.18372981 Ry
     estimated scf accuracy    <       0.03734651 Ry

     iteration #  3     ecut=    50.00 Ry     beta= 0.70
     CG style diagonalization
     ethr =  4.67E-04,  avg # of iterations =  4.1

     total cpu time spent up to now is        9.9 secs

     total energy              =     -46.19195328 Ry
     estimated scf accuracy    <       0.00038463 Ry

     iteration #  4     ecut=    50.00 Ry     beta= 0.70
     CG style diagonalization
     ethr =  4.81E-06,  avg # of iterations =  4.8

     total cpu time spent up to now is       12.1 secs

     total energy              =     -46.19224928 Ry
     estimated scf accuracy    <       0.00008921 Ry

     iteration #  5     ecut=    50.00 Ry     beta= 0.70
     CG style diagonalization
     ethr =  1.12E-06,  avg # of iterations =  4.1

     total cpu time spent up to now is       14.1 secs

     total energy              =     -46.19227174 Ry
     estimated scf accuracy    <       0.00000333 Ry

     iteration #  6     ecut=    50.00 Ry     beta= 0.70
     CG style diagonalization
     ethr =  4.17E-08,  avg # of iterations =  5.4

     total cpu time spent up to now is       16.4 secs

     total energy              =     -46.19227491 Ry
     estimated scf accuracy    <       0.00000045 Ry

     iteration #  7     ecut=    50.00 Ry     beta= 0.70
     CG style diagonalization
     ethr =  5.66E-09,  avg # of iterations =  4.9

     total cpu time spent up to now is       18.7 secs

     total energy              =     -46.19227511 Ry
     estimated scf accuracy    <       0.00000023 Ry

     iteration #  8     ecut=    50.00 Ry     beta= 0.70
     CG style diagonalization
     ethr =  2.90E-09,  avg # of iterations =  4.4

     total cpu time spent up to now is       20.8 secs

     total energy              =     -46.19227520 Ry
     estimated scf accuracy    <       0.00000005 Ry

     iteration #  9     ecut=    50.00 Ry     beta= 0.70
     CG style diagonalization
     ethr =  6.84E-10,  avg # of iterations =  3.9

     total cpu time spent up to now is       22.7 secs

     End of self-consistent calculation

          k = 0.0000 0.0000 0.0000 (  1067 PWs)   bands (ev):

    -6.9872   8.4904   8.4904   8.4904

          k =-0.1250 0.1250-0.1250 (  1076 PWs)   bands (ev):

    -6.7300   6.5216   8.0490   8.0490

          k =-0.2500 0.2500-0.2500 (  1083 PWs)   bands (ev):

    -5.9816   3.5327   7.3362   7.3362

          k =-0.3750 0.3750-0.3750 (  1089 PWs)   bands (ev):

    -4.8708   0.9399   6.8371   6.8371

          k = 0.5000-0.5000 0.5000 (  1068 PWs)   bands (ev):

    -4.1060  -0.3336   6.6648   6.6648

          k = 0.0000 0.2500 0.0000 (  1082 PWs)   bands (ev):

    -6.6439   7.0612   7.3166   7.3166

          k =-0.1250 0.3750-0.1250 (  1085 PWs)   bands (ev):

    -6.0564   4.5187   6.5721   6.8493

          k =-0.2500 0.5000-0.2500 (  1094 PWs)   bands (ev):

    -5.0447   1.8476   6.0636   6.1655

          k = 0.6250-0.3750 0.6250 (  1096 PWs)   bands (ev):

    -4.0158   0.0165   5.4500   6.1770

          k = 0.5000-0.2500 0.5000 (  1095 PWs)   bands (ev):

    -4.2987   0.4676   5.1868   6.5863

          k = 0.3750-0.1250 0.3750 (  1088 PWs)   bands (ev):

    -5.4215   2.6987   5.3619   7.2919

          k = 0.2500 0.0000 0.2500 (  1087 PWs)   bands (ev):

    -6.3077   5.2288   6.2179   8.0074

          k = 0.0000 0.5000 0.0000 (  1094 PWs)   bands (ev):

    -5.6364   4.4187   5.7646   5.7646

          k =-0.1250 0.6250-0.1250 (  1077 PWs)   bands (ev):

    -4.7707   2.5659   4.8086   5.3020

          k = 0.7500-0.2500 0.7500 (  1088 PWs)   bands (ev):

    -3.7053   0.7777   3.7188   5.2924

          k = 0.6250-0.1250 0.6250 (  1093 PWs)   bands (ev):

    -3.4852   0.4924   3.0846   5.7316

          k = 0.5000 0.0000 0.5000 (  1097 PWs)   bands (ev):

    -4.4597   1.8516   3.3493   6.5123

          k = 0.0000 0.7500 0.0000 (  1090 PWs)   bands (ev):

    -4.0789   1.6950   4.7364   4.7364

          k = 0.8750-0.1250 0.8750 (  1092 PWs)   bands (ev):

    -3.1800   0.5856   3.6628   4.6226

          k = 0.7500 0.0000 0.7500 (  1101 PWs)   bands (ev):

    -2.8506   0.4037   2.4562   4.9809

          k = 0.0000-1.0000 0.0000 (  1106 PWs)   bands (ev):

    -2.8189   0.0140   4.3830   4.3830

          k =-0.2500 0.5000 0.0000 (  1086 PWs)   bands (ev):

    -5.3278   3.2987   4.7403   6.4577

          k = 0.6250-0.3750 0.8750 (  1084 PWs)   bands (ev):

    -4.2580   1.3217   4.0233   5.7309

          k = 0.5000-0.2500 0.7500 (  1086 PWs)   bands (ev):

    -3.5369   0.1923   3.9064   5.3890

          k = 0.7500-0.2500 1.0000 (  1077 PWs)   bands (ev):

    -3.8493   1.4597   3.8132   4.5747

          k = 0.6250-0.1250 0.8750 (  1092 PWs)   bands (ev):

    -3.0107   0.5667   2.8551   4.3087

          k = 0.5000 0.0000 0.7500 (  1096 PWs)   bands (ev):

    -3.2991   0.8615   2.6163   4.8372

          k =-0.2500-1.0000 0.0000 (  1094 PWs)   bands (ev):

    -2.7383   0.2263   3.6275   3.7356

          k =-0.5000-1.0000 0.0000 (  1084 PWs)   bands (ev):

    -2.6520   0.5105   2.9300   3.2201

     highest occupied level (ev):     8.4904

!    total energy              =     -46.19227521 Ry
     estimated scf accuracy    <          7.4E-10 Ry

     The total energy is the sum of the following terms:
     one-electron contribution =       6.71245072 Ry
     hartree contribution      =       1.23906889 Ry
     xc contribution           =     -34.15008486 Ry
     ewald contribution        =     -19.99370996 Ry

     convergence has been achieved in   9 iterations

     Forces acting on atoms (cartesian axes, Ry/au):

     atom    1 type  1   force =    -0.00000000    0.00000000   -0.00000000
     atom    2 type  2   force =     0.00000000    0.00000000    0.00000000

     Total force =     0.000000     Total SCF correction =     0.000000


     Computing stress (Cartesian axis) and pressure

          total   stress  (Ry/bohr**3)                   (kbar)     P=      -13.87
  -0.00009429   0.00000000  -0.00000000          -13.87        0.00       -0.00
   0.00000000  -0.00009429  -0.00000000            0.00      -13.87       -0.00
   0.00000000  -0.00000000  -0.00009429            0.00       -0.00      -13.87


     Writing all to output data dir ./k8.save/
 
     init_run     :      2.55s CPU      2.81s WALL (       1 calls)
     electrons    :     17.24s CPU     18.65s WALL (       1 calls)
     forces       :      0.44s CPU      0.49s WALL (       1 calls)
     stress       :      3.62s CPU      3.75s WALL (       1 calls)

     Called by init_run:
     wfcinit      :      0.53s CPU      0.61s WALL (       1 calls)
     potinit      :      0.05s CPU      0.07s WALL (       1 calls)
     hinit0       :      1.62s CPU      1.71s WALL (       1 calls)

     Called by electrons:
     c_bands      :     10.33s CPU     11.00s WALL (       9 calls)
     sum_band     :      4.28s CPU      4.62s WALL (       9 calls)
     v_of_rho     :      0.33s CPU      0.34s WALL (      10 calls)
     newd         :      2.41s CPU      2.77s WALL (      10 calls)
     mix_rho      :      0.08s CPU      0.09s WALL (       9 calls)

     Called by c_bands:
     init_us_2    :      0.86s CPU      0.91s WALL (     609 calls)
     init_us_2:cp :      0.85s CPU      0.90s WALL (     609 calls)
     ccgdiagg     :      8.07s CPU      8.60s WALL (     261 calls)
     wfcrot       :      2.26s CPU      2.39s WALL (     261 calls)

     Called by *cgdiagg:
     h_psi        :      8.82s CPU      9.29s WALL (    3780 calls)
     s_psi        :      0.48s CPU      0.54s WALL (    7299 calls)

     Called by h_psi:
     h_psi:calbec :      0.47s CPU      0.51s WALL (    3780 calls)
     vloc_psi     :      7.81s CPU      8.21s WALL (    3780 calls)
     add_vuspsi   :      0.32s CPU      0.35s WALL (    3780 calls)
     hs_1psi      :      7.19s CPU      7.61s WALL (    3519 calls)
     s_1psi       :      0.59s CPU      0.65s WALL (    3519 calls)

     General routines
     calbec       :      0.70s CPU      0.78s WALL (    7705 calls)
     fft          :      0.20s CPU      0.23s WALL (      66 calls)
     ffts         :      0.02s CPU      0.02s WALL (      19 calls)
     fftw         :      7.45s CPU      7.82s WALL (   10402 calls)
     interpolate  :      0.05s CPU      0.05s WALL (      10 calls)
 
     Parallel routines
 
     PWSCF        :     24.68s CPU     27.64s WALL

 
   This run was terminated on:   8: 7:41  15Feb2022            

=------------------------------------------------------------------------------=
   JOB DONE.
=------------------------------------------------------------------------------=
