
     Program PWSCF v.7.0 starts on 14Feb2022 at 18:44:50 

     This program is part of the open-source Quantum ESPRESSO suite
     for quantum simulation of materials; please cite
         "P. Giannozzi et al., J. Phys.:Condens. Matter 21 395502 (2009);
         "P. Giannozzi et al., J. Phys.:Condens. Matter 29 465901 (2017);
         "P. Giannozzi et al., J. Chem. Phys. 152 154105 (2020);
          URL http://www.quantum-espresso.org", 
     in publications or presentations arising from this work. More details at
     http://www.quantum-espresso.org/quote

     Parallel version (MPI), running on     1 processors

     MPI processes distributed on     1 nodes
     87692 MiB available memory on the printing compute node when the environment starts
 
     Waiting for input...
     Reading input from standard input
Warning: card &CELL ignored
Warning: card  CELL_DYNAMICS = 'BFGS', ignored
Warning: card  PRESS=0.1D0, ignored
Warning: card / ignored

     Current dimensions of program PWSCF are:
     Max number of different atomic species (ntypx) = 10
     Max number of k-points (npk) =  40000
     Max angular momentum in pseudopotentials (lmaxx) =  4

     Subspace diagonalization in iterative solution of the eigenvalue problem:
     a serial algorithm will be used

 
     G-vector sticks info
     --------------------
     sticks:   dense  smooth     PW     G-vecs:    dense   smooth      PW
     Sum        2527     889    265                83227    17573    2891
 
     Using Slab Decomposition
 


     bravais-lattice index     =            2
     lattice parameter (alat)  =       9.0000  a.u.
     unit-cell volume          =     182.2500 (a.u.)^3
     number of atoms/cell      =            2
     number of atomic types    =            2
     number of electrons       =         8.00
     number of Kohn-Sham states=            4
     kinetic-energy cutoff     =      80.0000  Ry
     charge density cutoff     =     900.0000  Ry
     scf convergence threshold =      1.0E-08
     mixing beta               =       0.7000
     number of iterations used =            8  plain     mixing
     Exchange-correlation= SLA  PZ   NOGX NOGC
                           (   1   1   0   0   0   0   0)

     celldm(1)=   9.000000  celldm(2)=   0.000000  celldm(3)=   0.000000
     celldm(4)=   0.000000  celldm(5)=   0.000000  celldm(6)=   0.000000

     crystal axes: (cart. coord. in units of alat)
               a(1) = (  -0.500000   0.000000   0.500000 )  
               a(2) = (   0.000000   0.500000   0.500000 )  
               a(3) = (  -0.500000   0.500000   0.000000 )  

     reciprocal axes: (cart. coord. in units 2 pi/alat)
               b(1) = ( -1.000000 -1.000000  1.000000 )  
               b(2) = (  1.000000  1.000000  1.000000 )  
               b(3) = ( -1.000000  1.000000 -1.000000 )  


     PseudoPot. # 1 for B  read from file:
     ./pseudo_dir/B_LDA.UPF
     MD5 check sum: a9970de764dbc07c3a3d9583c605c3b2
     Pseudo is Ultrasoft + core correction, Zval =  3.0
     Generated by new atomic code, or converted to UPF format
     Using radial grid of  781 points,  4 beta functions with: 
                l(1) =   0
                l(2) =   0
                l(3) =   1
                l(4) =   1
     Q(r) pseudized with  8 coefficients,  rinner =    1.100   1.100   1.100


     PseudoPot. # 2 for As read from file:
     ./pseudo_dir/As_LDA.UPF
     MD5 check sum: 6d2e8cbe4ed9d0db7c6ef7a361cc050d
     Pseudo is Ultrasoft + core correction, Zval =  5.0
     Generated by new atomic code, or converted to UPF format
     Using radial grid of  875 points,  6 beta functions with: 
                l(1) =   0
                l(2) =   0
                l(3) =   1
                l(4) =   1
                l(5) =   2
                l(6) =   2
     Q(r) pseudized with  8 coefficients,  rinner =    1.300   1.300   1.300
                                                       1.300   1.300

     atomic species   valence    mass     pseudopotential
        B              3.00    10.81100     B ( 1.00)
        As             5.00    74.92160     As( 1.00)

     24 Sym. Ops. (no inversion) found



   Cartesian axes

     site n.     atom                  positions (alat units)
         1           B   tau(   1) = (   0.0000000   0.0000000   0.0000000  )
         2           As  tau(   2) = (  -0.2500000   0.2500000   0.2500000  )

     number of k points=    29
                       cart. coord. in units 2pi/alat
        k(    1) = (   0.0000000   0.0000000   0.0000000), wk =   0.0039062
        k(    2) = (  -0.1250000   0.1250000  -0.1250000), wk =   0.0312500
        k(    3) = (  -0.2500000   0.2500000  -0.2500000), wk =   0.0312500
        k(    4) = (  -0.3750000   0.3750000  -0.3750000), wk =   0.0312500
        k(    5) = (   0.5000000  -0.5000000   0.5000000), wk =   0.0156250
        k(    6) = (   0.0000000   0.2500000   0.0000000), wk =   0.0234375
        k(    7) = (  -0.1250000   0.3750000  -0.1250000), wk =   0.0937500
        k(    8) = (  -0.2500000   0.5000000  -0.2500000), wk =   0.0937500
        k(    9) = (   0.6250000  -0.3750000   0.6250000), wk =   0.0937500
        k(   10) = (   0.5000000  -0.2500000   0.5000000), wk =   0.0937500
        k(   11) = (   0.3750000  -0.1250000   0.3750000), wk =   0.0937500
        k(   12) = (   0.2500000   0.0000000   0.2500000), wk =   0.0468750
        k(   13) = (   0.0000000   0.5000000   0.0000000), wk =   0.0234375
        k(   14) = (  -0.1250000   0.6250000  -0.1250000), wk =   0.0937500
        k(   15) = (   0.7500000  -0.2500000   0.7500000), wk =   0.0937500
        k(   16) = (   0.6250000  -0.1250000   0.6250000), wk =   0.0937500
        k(   17) = (   0.5000000   0.0000000   0.5000000), wk =   0.0468750
        k(   18) = (   0.0000000   0.7500000   0.0000000), wk =   0.0234375
        k(   19) = (   0.8750000  -0.1250000   0.8750000), wk =   0.0937500
        k(   20) = (   0.7500000   0.0000000   0.7500000), wk =   0.0468750
        k(   21) = (   0.0000000  -1.0000000   0.0000000), wk =   0.0117188
        k(   22) = (  -0.2500000   0.5000000   0.0000000), wk =   0.0937500
        k(   23) = (   0.6250000  -0.3750000   0.8750000), wk =   0.1875000
        k(   24) = (   0.5000000  -0.2500000   0.7500000), wk =   0.0937500
        k(   25) = (   0.7500000  -0.2500000   1.0000000), wk =   0.0937500
        k(   26) = (   0.6250000  -0.1250000   0.8750000), wk =   0.1875000
        k(   27) = (   0.5000000   0.0000000   0.7500000), wk =   0.0937500
        k(   28) = (  -0.2500000  -1.0000000   0.0000000), wk =   0.0468750
        k(   29) = (  -0.5000000  -1.0000000   0.0000000), wk =   0.0234375

     Dense  grid:    83227 G-vectors     FFT dimensions: (  64,  64,  64)

     Smooth grid:    17573 G-vectors     FFT dimensions: (  40,  40,  40)

     Estimated max dynamical RAM per process >     319.62 MB

     Initial potential from superposition of free atoms

     starting charge       7.9996, renormalised to       8.0000
     Starting wfcs are    8 randomized atomic wfcs

     total cpu time spent up to now is        5.4 secs

     Self-consistent Calculation

     iteration #  1     ecut=    80.00 Ry     beta= 0.70
     CG style diagonalization
     ethr =  1.00E-02,  avg # of iterations =  2.7

     total cpu time spent up to now is        8.6 secs

     total energy              =     -46.15135199 Ry
     estimated scf accuracy    <       0.14562186 Ry

     iteration #  2     ecut=    80.00 Ry     beta= 0.70
     CG style diagonalization
     ethr =  1.82E-03,  avg # of iterations =  4.2

     total cpu time spent up to now is       12.5 secs

     total energy              =     -46.18430835 Ry
     estimated scf accuracy    <       0.03683207 Ry

     iteration #  3     ecut=    80.00 Ry     beta= 0.70
     CG style diagonalization
     ethr =  4.60E-04,  avg # of iterations =  4.1

     total cpu time spent up to now is       16.3 secs

     total energy              =     -46.19249359 Ry
     estimated scf accuracy    <       0.00038002 Ry

     iteration #  4     ecut=    80.00 Ry     beta= 0.70
     CG style diagonalization
     ethr =  4.75E-06,  avg # of iterations =  5.0

     total cpu time spent up to now is       20.8 secs

     total energy              =     -46.19281992 Ry
     estimated scf accuracy    <       0.00014354 Ry

     iteration #  5     ecut=    80.00 Ry     beta= 0.70
     CG style diagonalization
     ethr =  1.79E-06,  avg # of iterations =  4.2

     total cpu time spent up to now is       24.6 secs

     total energy              =     -46.19286304 Ry
     estimated scf accuracy    <       0.00001530 Ry

     iteration #  6     ecut=    80.00 Ry     beta= 0.70
     CG style diagonalization
     ethr =  1.91E-07,  avg # of iterations =  5.0

     total cpu time spent up to now is       28.9 secs

     total energy              =     -46.19287234 Ry
     estimated scf accuracy    <       0.00000122 Ry

     iteration #  7     ecut=    80.00 Ry     beta= 0.70
     CG style diagonalization
     ethr =  1.53E-08,  avg # of iterations =  6.1

     total cpu time spent up to now is       33.9 secs

     total energy              =     -46.19287330 Ry
     estimated scf accuracy    <       0.00000205 Ry

     iteration #  8     ecut=    80.00 Ry     beta= 0.70
     CG style diagonalization
     ethr =  1.53E-08,  avg # of iterations =  4.3

     total cpu time spent up to now is       37.8 secs

     total energy              =     -46.19287389 Ry
     estimated scf accuracy    <       0.00000015 Ry

     iteration #  9     ecut=    80.00 Ry     beta= 0.70
     CG style diagonalization
     ethr =  1.92E-09,  avg # of iterations =  4.2

     total cpu time spent up to now is       41.7 secs

     End of self-consistent calculation

          k = 0.0000 0.0000 0.0000 (  2229 PWs)   bands (ev):

    -6.9882   8.4882   8.4882   8.4882

          k =-0.1250 0.1250-0.1250 (  2187 PWs)   bands (ev):

    -6.7311   6.5196   8.0468   8.0468

          k =-0.2500 0.2500-0.2500 (  2190 PWs)   bands (ev):

    -5.9827   3.5309   7.3341   7.3341

          k =-0.3750 0.3750-0.3750 (  2202 PWs)   bands (ev):

    -4.8722   0.9384   6.8351   6.8351

          k = 0.5000-0.5000 0.5000 (  2186 PWs)   bands (ev):

    -4.1076  -0.3347   6.6627   6.6627

          k = 0.0000 0.2500 0.0000 (  2189 PWs)   bands (ev):

    -6.6449   7.0590   7.3146   7.3146

          k =-0.1250 0.3750-0.1250 (  2197 PWs)   bands (ev):

    -6.0575   4.5168   6.5702   6.8473

          k =-0.2500 0.5000-0.2500 (  2185 PWs)   bands (ev):

    -5.0460   1.8461   6.0617   6.1637

          k = 0.6250-0.3750 0.6250 (  2202 PWs)   bands (ev):

    -4.0174   0.0153   5.4481   6.1750

          k = 0.5000-0.2500 0.5000 (  2213 PWs)   bands (ev):

    -4.3002   0.4663   5.1850   6.5843

          k = 0.3750-0.1250 0.3750 (  2195 PWs)   bands (ev):

    -5.4228   2.6971   5.3601   7.2899

          k = 0.2500 0.0000 0.2500 (  2201 PWs)   bands (ev):

    -6.3087   5.2268   6.2160   8.0052

          k = 0.0000 0.5000 0.0000 (  2181 PWs)   bands (ev):

    -5.6376   4.4167   5.7628   5.7628

          k =-0.1250 0.6250-0.1250 (  2202 PWs)   bands (ev):

    -4.7721   2.5642   4.8068   5.3002

          k = 0.7500-0.2500 0.7500 (  2200 PWs)   bands (ev):

    -3.7069   0.7763   3.7172   5.2906

          k = 0.6250-0.1250 0.6250 (  2212 PWs)   bands (ev):

    -3.4868   0.4911   3.0831   5.7297

          k = 0.5000 0.0000 0.5000 (  2209 PWs)   bands (ev):

    -4.4611   1.8500   3.3477   6.5104

          k = 0.0000 0.7500 0.0000 (  2209 PWs)   bands (ev):

    -4.0804   1.6933   4.7347   4.7347

          k = 0.8750-0.1250 0.8750 (  2199 PWs)   bands (ev):

    -3.1817   0.5842   3.6613   4.6209

          k = 0.7500 0.0000 0.7500 (  2219 PWs)   bands (ev):

    -2.8524   0.4024   2.4549   4.9792

          k = 0.0000-1.0000 0.0000 (  2200 PWs)   bands (ev):

    -2.8207   0.0128   4.3814   4.3814

          k =-0.2500 0.5000 0.0000 (  2194 PWs)   bands (ev):

    -5.3291   3.2969   4.7386   6.4557

          k = 0.6250-0.3750 0.8750 (  2206 PWs)   bands (ev):

    -4.2594   1.3202   4.0216   5.7291

          k = 0.5000-0.2500 0.7500 (  2216 PWs)   bands (ev):

    -3.5386   0.1911   3.9047   5.3872

          k = 0.7500-0.2500 1.0000 (  2203 PWs)   bands (ev):

    -3.8508   1.4581   3.8116   4.5731

          k = 0.6250-0.1250 0.8750 (  2210 PWs)   bands (ev):

    -3.0125   0.5654   2.8537   4.3071

          k = 0.5000 0.0000 0.7500 (  2211 PWs)   bands (ev):

    -3.3008   0.8601   2.6149   4.8355

          k =-0.2500-1.0000 0.0000 (  2214 PWs)   bands (ev):

    -2.7402   0.2251   3.6259   3.7341

          k =-0.5000-1.0000 0.0000 (  2208 PWs)   bands (ev):

    -2.6539   0.5092   2.9286   3.2187

     highest occupied level (ev):     8.4882

!    total energy              =     -46.19287393 Ry
     estimated scf accuracy    <          1.3E-09 Ry

     The total energy is the sum of the following terms:
     one-electron contribution =       6.70881268 Ry
     hartree contribution      =       1.23889870 Ry
     xc contribution           =     -34.14687536 Ry
     ewald contribution        =     -19.99370996 Ry

     convergence has been achieved in   9 iterations

     Forces acting on atoms (cartesian axes, Ry/au):

     atom    1 type  1   force =     0.00000000    0.00000000   -0.00000000
     atom    2 type  2   force =     0.00000000    0.00000000    0.00000000

     Total force =     0.000000     Total SCF correction =     0.000000


     Computing stress (Cartesian axis) and pressure

          total   stress  (Ry/bohr**3)                   (kbar)     P=      -13.76
  -0.00009356  -0.00000000   0.00000000          -13.76       -0.00        0.00
   0.00000000  -0.00009356   0.00000000            0.00      -13.76        0.00
   0.00000000   0.00000000  -0.00009356            0.00        0.00      -13.76


     Writing all to output data dir ./k8.save/
 
     init_run     :      3.73s CPU      4.08s WALL (       1 calls)
     electrons    :     33.82s CPU     36.34s WALL (       1 calls)
     forces       :      0.81s CPU      0.88s WALL (       1 calls)
     stress       :      6.75s CPU      6.98s WALL (       1 calls)

     Called by init_run:
     wfcinit      :      1.04s CPU      1.14s WALL (       1 calls)
     potinit      :      0.10s CPU      0.13s WALL (       1 calls)
     hinit0       :      1.95s CPU      2.05s WALL (       1 calls)

     Called by electrons:
     c_bands      :     21.04s CPU     22.31s WALL (       9 calls)
     sum_band     :      7.90s CPU      8.52s WALL (       9 calls)
     v_of_rho     :      0.67s CPU      0.69s WALL (      10 calls)
     newd         :      4.44s CPU      5.04s WALL (      10 calls)
     mix_rho      :      0.16s CPU      0.17s WALL (       9 calls)

     Called by c_bands:
     init_us_2    :      1.75s CPU      1.80s WALL (     609 calls)
     init_us_2:cp :      1.73s CPU      1.79s WALL (     609 calls)
     ccgdiagg     :     16.67s CPU     17.72s WALL (     261 calls)
     wfcrot       :      4.38s CPU      4.61s WALL (     261 calls)

     Called by *cgdiagg:
     h_psi        :     17.71s CPU     18.51s WALL (    3952 calls)
     s_psi        :      1.37s CPU      1.63s WALL (    7643 calls)

     Called by h_psi:
     h_psi:calbec :      0.91s CPU      0.98s WALL (    3952 calls)
     vloc_psi     :     15.69s CPU     16.32s WALL (    3952 calls)
     add_vuspsi   :      0.80s CPU      0.91s WALL (    3952 calls)
     hs_1psi      :     14.60s CPU     15.35s WALL (    3691 calls)
     s_1psi       :      1.47s CPU      1.66s WALL (    3691 calls)

     General routines
     calbec       :      1.51s CPU      1.75s WALL (    8049 calls)
     fft          :      0.38s CPU      0.40s WALL (      66 calls)
     ffts         :      0.02s CPU      0.03s WALL (      19 calls)
     fftw         :     14.42s CPU     14.95s WALL (   10746 calls)
     interpolate  :      0.08s CPU      0.09s WALL (      10 calls)
 
     Parallel routines
 
     PWSCF        :     45.94s CPU     50.29s WALL

 
   This run was terminated on:  18:45:40  14Feb2022            

=------------------------------------------------------------------------------=
   JOB DONE.
=------------------------------------------------------------------------------=
