
     Program PWSCF v.7.0 starts on 21Feb2022 at 17: 7:31 

     This program is part of the open-source Quantum ESPRESSO suite
     for quantum simulation of materials; please cite
         "P. Giannozzi et al., J. Phys.:Condens. Matter 21 395502 (2009);
         "P. Giannozzi et al., J. Phys.:Condens. Matter 29 465901 (2017);
         "P. Giannozzi et al., J. Chem. Phys. 152 154105 (2020);
          URL http://www.quantum-espresso.org", 
     in publications or presentations arising from this work. More details at
     http://www.quantum-espresso.org/quote

     Parallel version (MPI), running on     1 processors

     MPI processes distributed on     1 nodes
     88824 MiB available memory on the printing compute node when the environment starts
 
     Waiting for input...
     Reading input from standard input
Warning: card &CELL ignored
Warning: card  CELL_DYNAMICS = 'BFGS', ignored
Warning: card  PRESS=0.1D0, ignored
Warning: card / ignored

     Current dimensions of program PWSCF are:
     Max number of different atomic species (ntypx) = 10
     Max number of k-points (npk) =  40000
     Max angular momentum in pseudopotentials (lmaxx) =  4

     Subspace diagonalization in iterative solution of the eigenvalue problem:
     a serial algorithm will be used

 
     G-vector sticks info
     --------------------
     sticks:   dense  smooth     PW     G-vecs:    dense   smooth      PW
     Sum        1663     559    169                45143     8657    1471
 
     Using Slab Decomposition
 


     bravais-lattice index     =            2
     lattice parameter (alat)  =       9.0000  a.u.
     unit-cell volume          =     182.2500 (a.u.)^3
     number of atoms/cell      =            2
     number of atomic types    =            2
     number of electrons       =         8.00
     number of Kohn-Sham states=            4
     kinetic-energy cutoff     =      50.0000  Ry
     charge density cutoff     =     600.0000  Ry
     scf convergence threshold =      1.0E-08
     mixing beta               =       0.7000
     number of iterations used =            8  plain     mixing
     Exchange-correlation= SLA  PZ   NOGX NOGC
                           (   1   1   0   0   0   0   0)

     celldm(1)=   9.000000  celldm(2)=   0.000000  celldm(3)=   0.000000
     celldm(4)=   0.000000  celldm(5)=   0.000000  celldm(6)=   0.000000

     crystal axes: (cart. coord. in units of alat)
               a(1) = (  -0.500000   0.000000   0.500000 )  
               a(2) = (   0.000000   0.500000   0.500000 )  
               a(3) = (  -0.500000   0.500000   0.000000 )  

     reciprocal axes: (cart. coord. in units 2 pi/alat)
               b(1) = ( -1.000000 -1.000000  1.000000 )  
               b(2) = (  1.000000  1.000000  1.000000 )  
               b(3) = ( -1.000000  1.000000 -1.000000 )  


     PseudoPot. # 1 for B  read from file:
     ./pseudo_dir/B_LDA.UPF
     MD5 check sum: a9970de764dbc07c3a3d9583c605c3b2
     Pseudo is Ultrasoft + core correction, Zval =  3.0
     Generated by new atomic code, or converted to UPF format
     Using radial grid of  781 points,  4 beta functions with: 
                l(1) =   0
                l(2) =   0
                l(3) =   1
                l(4) =   1
     Q(r) pseudized with  8 coefficients,  rinner =    1.100   1.100   1.100


     PseudoPot. # 2 for As read from file:
     ./pseudo_dir/As_LDA.UPF
     MD5 check sum: 6d2e8cbe4ed9d0db7c6ef7a361cc050d
     Pseudo is Ultrasoft + core correction, Zval =  5.0
     Generated by new atomic code, or converted to UPF format
     Using radial grid of  875 points,  6 beta functions with: 
                l(1) =   0
                l(2) =   0
                l(3) =   1
                l(4) =   1
                l(5) =   2
                l(6) =   2
     Q(r) pseudized with  8 coefficients,  rinner =    1.300   1.300   1.300
                                                       1.300   1.300

     atomic species   valence    mass     pseudopotential
        B              3.00    10.81100     B ( 1.00)
        As             5.00    74.92160     As( 1.00)

     24 Sym. Ops. (no inversion) found



   Cartesian axes

     site n.     atom                  positions (alat units)
         1           B   tau(   1) = (   0.0000000   0.0000000   0.0000000  )
         2           As  tau(   2) = (  -0.2500000   0.2500000   0.2500000  )

     number of k points=    35
                       cart. coord. in units 2pi/alat
        k(    1) = (   0.0000000   0.0000000   0.0000000), wk =   0.0027435
        k(    2) = (  -0.1111111   0.1111111  -0.1111111), wk =   0.0219479
        k(    3) = (  -0.2222222   0.2222222  -0.2222222), wk =   0.0219479
        k(    4) = (  -0.3333333   0.3333333  -0.3333333), wk =   0.0219479
        k(    5) = (  -0.4444444   0.4444444  -0.4444444), wk =   0.0219479
        k(    6) = (   0.0000000   0.2222222   0.0000000), wk =   0.0164609
        k(    7) = (  -0.1111111   0.3333333  -0.1111111), wk =   0.0658436
        k(    8) = (  -0.2222222   0.4444444  -0.2222222), wk =   0.0658436
        k(    9) = (  -0.3333333   0.5555556  -0.3333333), wk =   0.0658436
        k(   10) = (   0.5555556  -0.3333333   0.5555556), wk =   0.0658436
        k(   11) = (   0.4444444  -0.2222222   0.4444444), wk =   0.0658436
        k(   12) = (   0.3333333  -0.1111111   0.3333333), wk =   0.0658436
        k(   13) = (   0.2222222  -0.0000000   0.2222222), wk =   0.0329218
        k(   14) = (   0.0000000   0.4444444   0.0000000), wk =   0.0164609
        k(   15) = (  -0.1111111   0.5555556  -0.1111111), wk =   0.0658436
        k(   16) = (  -0.2222222   0.6666667  -0.2222222), wk =   0.0658436
        k(   17) = (   0.6666667  -0.2222222   0.6666667), wk =   0.0658436
        k(   18) = (   0.5555556  -0.1111111   0.5555556), wk =   0.0658436
        k(   19) = (   0.4444444  -0.0000000   0.4444444), wk =   0.0329218
        k(   20) = (   0.0000000   0.6666667   0.0000000), wk =   0.0164609
        k(   21) = (  -0.1111111   0.7777778  -0.1111111), wk =   0.0658436
        k(   22) = (   0.7777778  -0.1111111   0.7777778), wk =   0.0658436
        k(   23) = (   0.6666667  -0.0000000   0.6666667), wk =   0.0329218
        k(   24) = (   0.0000000   0.8888889   0.0000000), wk =   0.0164609
        k(   25) = (   0.8888889   0.0000000   0.8888889), wk =   0.0329218
        k(   26) = (  -0.2222222   0.4444444   0.0000000), wk =   0.0658436
        k(   27) = (  -0.3333333   0.5555556  -0.1111111), wk =   0.1316872
        k(   28) = (   0.5555556  -0.3333333   0.7777778), wk =   0.1316872
        k(   29) = (  -0.2222222   0.6666667   0.0000000), wk =   0.0658436
        k(   30) = (   0.6666667  -0.2222222   0.8888889), wk =   0.1316872
        k(   31) = (   0.5555556  -0.1111111   0.7777778), wk =   0.1316872
        k(   32) = (   0.4444444  -0.0000000   0.6666667), wk =   0.0658436
        k(   33) = (   0.7777778  -0.1111111   1.0000000), wk =   0.0658436
        k(   34) = (   0.6666667  -0.0000000   0.8888889), wk =   0.0658436
        k(   35) = (   0.5555556  -0.1111111   1.0000000), wk =   0.0658436

     Dense  grid:    45143 G-vectors     FFT dimensions: (  50,  50,  50)

     Smooth grid:     8657 G-vectors     FFT dimensions: (  30,  30,  30)

     Estimated max dynamical RAM per process >     173.66 MB

     Initial potential from superposition of free atoms

     starting charge       7.9996, renormalised to       8.0000
     Starting wfcs are    8 randomized atomic wfcs

     total cpu time spent up to now is        4.5 secs

     Self-consistent Calculation

     iteration #  1     ecut=    50.00 Ry     beta= 0.70
     CG style diagonalization
     ethr =  1.00E-02,  avg # of iterations =  2.7

     total cpu time spent up to now is        6.2 secs

     total energy              =     -46.15101084 Ry
     estimated scf accuracy    <       0.14543064 Ry

     iteration #  2     ecut=    50.00 Ry     beta= 0.70
     CG style diagonalization
     ethr =  1.82E-03,  avg # of iterations =  4.2

     total cpu time spent up to now is        8.3 secs

     total energy              =     -46.18385178 Ry
     estimated scf accuracy    <       0.03732913 Ry

     iteration #  3     ecut=    50.00 Ry     beta= 0.70
     CG style diagonalization
     ethr =  4.67E-04,  avg # of iterations =  4.1

     total cpu time spent up to now is       10.4 secs

     total energy              =     -46.19204973 Ry
     estimated scf accuracy    <       0.00037453 Ry

     iteration #  4     ecut=    50.00 Ry     beta= 0.70
     CG style diagonalization
     ethr =  4.68E-06,  avg # of iterations =  4.8

     total cpu time spent up to now is       12.7 secs

     total energy              =     -46.19236155 Ry
     estimated scf accuracy    <       0.00011280 Ry

     iteration #  5     ecut=    50.00 Ry     beta= 0.70
     CG style diagonalization
     ethr =  1.41E-06,  avg # of iterations =  4.1

     total cpu time spent up to now is       14.8 secs

     total energy              =     -46.19238988 Ry
     estimated scf accuracy    <       0.00000504 Ry

     iteration #  6     ecut=    50.00 Ry     beta= 0.70
     CG style diagonalization
     ethr =  6.30E-08,  avg # of iterations =  5.0

     total cpu time spent up to now is       17.2 secs

     total energy              =     -46.19239342 Ry
     estimated scf accuracy    <       0.00000054 Ry

     iteration #  7     ecut=    50.00 Ry     beta= 0.70
     CG style diagonalization
     ethr =  6.77E-09,  avg # of iterations =  5.4

     total cpu time spent up to now is       19.7 secs

     total energy              =     -46.19239369 Ry
     estimated scf accuracy    <       0.00000047 Ry

     iteration #  8     ecut=    50.00 Ry     beta= 0.70
     CG style diagonalization
     ethr =  5.83E-09,  avg # of iterations =  4.4

     total cpu time spent up to now is       21.8 secs

     total energy              =     -46.19239386 Ry
     estimated scf accuracy    <       0.00000011 Ry

     iteration #  9     ecut=    50.00 Ry     beta= 0.70
     CG style diagonalization
     ethr =  1.32E-09,  avg # of iterations =  3.9

     total cpu time spent up to now is       23.8 secs

     End of self-consistent calculation

          k = 0.0000 0.0000 0.0000 (  1067 PWs)   bands (ev):

    -6.9876   8.4897   8.4897   8.4897

          k =-0.1111 0.1111-0.1111 (  1082 PWs)   bands (ev):

    -6.7842   6.8427   8.1262   8.1262

          k =-0.2222 0.2222-0.2222 (  1089 PWs)   bands (ev):

    -6.1873   4.1843   7.4835   7.4835

          k =-0.3333 0.3333-0.3333 (  1089 PWs)   bands (ev):

    -5.2619   1.7211   6.9689   6.9689

          k =-0.4444 0.4444-0.4444 (  1086 PWs)   bands (ev):

    -4.2976  -0.0419   6.6984   6.6984

          k = 0.0000 0.2222 0.0000 (  1074 PWs)   bands (ev):

    -6.7161   7.3163   7.5013   7.5013

          k =-0.1111 0.3333-0.1111 (  1093 PWs)   bands (ev):

    -6.2489   5.0541   6.8118   7.1517

          k =-0.2222 0.4444-0.2222 (  1086 PWs)   bands (ev):

    -5.4240   2.5758   6.3545   6.4734

          k =-0.3333 0.5556-0.3333 (  1093 PWs)   bands (ev):

    -4.4146   0.5509   5.8725   6.2141

          k = 0.5556-0.3333 0.5556 (  1092 PWs)   bands (ev):

    -3.9724  -0.1490   5.5078   6.3968

          k = 0.4444-0.2222 0.4444 (  1097 PWs)   bands (ev):

    -4.7492   1.1490   5.4489   6.8639

          k = 0.3333-0.1111 0.3333 (  1089 PWs)   bands (ev):

    -5.7355   3.3767   5.7413   7.5193

          k = 0.2222-0.0000 0.2222 (  1073 PWs)   bands (ev):

    -6.4488   5.6779   6.5712   8.1145

          k = 0.0000 0.4444 0.0000 (  1082 PWs)   bands (ev):

    -5.9149   5.0338   6.0738   6.0738

          k =-0.1111 0.5556-0.1111 (  1083 PWs)   bands (ev):

    -5.2123   3.2578   5.3340   5.5774

          k =-0.2222 0.6667-0.2222 (  1082 PWs)   bands (ev):

    -4.2533   1.3550   4.4185   5.4238

          k = 0.6667-0.2222 0.6667 (  1089 PWs)   bands (ev):

    -3.5276   0.2323   3.7314   5.6307

          k = 0.5556-0.1111 0.5556 (  1092 PWs)   bands (ev):

    -3.9675   0.9111   3.4450   6.1613

          k = 0.4444-0.0000 0.4444 (  1083 PWs)   bands (ev):

    -4.9378   2.4631   3.8951   6.8962

          k = 0.0000 0.6667 0.0000 (  1078 PWs)   bands (ev):

    -4.6424   2.5732   5.0073   5.0073

          k =-0.1111 0.7778-0.1111 (  1082 PWs)   bands (ev):

    -3.8029   1.3390   4.0720   4.7775

          k = 0.7778-0.1111 0.7778 (  1100 PWs)   bands (ev):

    -3.0458   0.5007   2.8510   4.9222

          k = 0.6667-0.0000 0.6667 (  1113 PWs)   bands (ev):

    -3.1685   0.6700   2.3345   5.4178

          k = 0.0000 0.8889 0.0000 (  1094 PWs)   bands (ev):

    -3.1728   0.4515   4.4527   4.4527

          k = 0.8889 0.0000 0.8889 (  1100 PWs)   bands (ev):

    -2.7894   0.1027   3.6703   4.5036

          k =-0.2222 0.4444 0.0000 (  1088 PWs)   bands (ev):

    -5.6635   3.9009   5.2019   6.8285

          k =-0.3333 0.5556-0.1111 (  1078 PWs)   bands (ev):

    -4.7608   1.9709   4.4744   6.1873

          k = 0.5556-0.3333 0.7778 (  1095 PWs)   bands (ev):

    -3.8317   0.3638   4.2849   5.7051

          k =-0.2222 0.6667 0.0000 (  1077 PWs)   bands (ev):

    -4.4313   2.1664   4.2026   5.0916

          k = 0.6667-0.2222 0.8889 (  1085 PWs)   bands (ev):

    -3.5137   0.9301   3.3532   4.6586

          k = 0.5556-0.1111 0.7778 (  1091 PWs)   bands (ev):

    -3.1626   0.5108   2.8220   4.8224

          k = 0.4444-0.0000 0.6667 (  1092 PWs)   bands (ev):

    -3.8607   1.3233   2.9960   5.4355

          k = 0.7778-0.1111 1.0000 (  1090 PWs)   bands (ev):

    -3.0614   0.5327   3.7578   4.0180

          k = 0.6667-0.0000 0.8889 (  1096 PWs)   bands (ev):

    -2.7470   0.3885   2.7403   4.1568

          k = 0.5556-0.1111 1.0000 (  1083 PWs)   bands (ev):

    -2.8406   0.6040   2.8030   3.7044

     highest occupied level (ev):     8.4897

!    total energy              =     -46.19239387 Ry
     estimated scf accuracy    <          2.8E-09 Ry

     The total energy is the sum of the following terms:
     one-electron contribution =       6.71249122 Ry
     hartree contribution      =       1.23876984 Ry
     xc contribution           =     -34.14994497 Ry
     ewald contribution        =     -19.99370996 Ry

     convergence has been achieved in   9 iterations

     Forces acting on atoms (cartesian axes, Ry/au):

     atom    1 type  1   force =     0.00000000    0.00000000    0.00000000
     atom    2 type  2   force =     0.00000000   -0.00000000    0.00000000

     Total force =     0.000000     Total SCF correction =     0.000000


     Computing stress (Cartesian axis) and pressure

          total   stress  (Ry/bohr**3)                   (kbar)     P=      -13.89
  -0.00009441   0.00000000   0.00000000          -13.89        0.00        0.00
   0.00000000  -0.00009441   0.00000000            0.00      -13.89        0.00
   0.00000000   0.00000000  -0.00009441            0.00        0.00      -13.89


     Writing all to output data dir ./k9.save/
 
     init_run     :      2.53s CPU      2.82s WALL (       1 calls)
     electrons    :     18.06s CPU     19.42s WALL (       1 calls)
     forces       :      0.43s CPU      0.48s WALL (       1 calls)
     stress       :      3.57s CPU      3.70s WALL (       1 calls)

     Called by init_run:
     wfcinit      :      0.58s CPU      0.66s WALL (       1 calls)
     potinit      :      0.05s CPU      0.07s WALL (       1 calls)
     hinit0       :      1.58s CPU      1.67s WALL (       1 calls)

     Called by electrons:
     c_bands      :     11.41s CPU     12.09s WALL (       9 calls)
     sum_band     :      4.17s CPU      4.49s WALL (       9 calls)
     v_of_rho     :      0.32s CPU      0.33s WALL (      10 calls)
     newd         :      2.27s CPU      2.59s WALL (      10 calls)
     mix_rho      :      0.08s CPU      0.09s WALL (       9 calls)

     Called by c_bands:
     init_us_2    :      0.99s CPU      1.05s WALL (     735 calls)
     init_us_2:cp :      0.97s CPU      1.04s WALL (     735 calls)
     ccgdiagg     :      8.95s CPU      9.49s WALL (     315 calls)
     wfcrot       :      2.44s CPU      2.55s WALL (     315 calls)

     Called by *cgdiagg:
     h_psi        :      9.61s CPU     10.07s WALL (    4581 calls)
     s_psi        :      0.58s CPU      0.63s WALL (    8847 calls)

     Called by h_psi:
     h_psi:calbec :      0.59s CPU      0.64s WALL (    4581 calls)
     vloc_psi     :      8.39s CPU      8.77s WALL (    4581 calls)
     add_vuspsi   :      0.37s CPU      0.40s WALL (    4581 calls)
     hs_1psi      :      7.90s CPU      8.32s WALL (    4266 calls)
     s_1psi       :      0.70s CPU      0.77s WALL (    4266 calls)

     General routines
     calbec       :      0.87s CPU      0.96s WALL (    9337 calls)
     fft          :      0.19s CPU      0.22s WALL (      66 calls)
     ffts         :      0.02s CPU      0.02s WALL (      19 calls)
     fftw         :      8.16s CPU      8.52s WALL (   12592 calls)
     interpolate  :      0.05s CPU      0.05s WALL (      10 calls)
 
     Parallel routines
 
     PWSCF        :     25.43s CPU     28.72s WALL

 
   This run was terminated on:  17: 8: 0  21Feb2022            

=------------------------------------------------------------------------------=
   JOB DONE.
=------------------------------------------------------------------------------=
