
     Program PWSCF v.7.0 starts on 20Feb2022 at 17:55:37 

     This program is part of the open-source Quantum ESPRESSO suite
     for quantum simulation of materials; please cite
         "P. Giannozzi et al., J. Phys.:Condens. Matter 21 395502 (2009);
         "P. Giannozzi et al., J. Phys.:Condens. Matter 29 465901 (2017);
         "P. Giannozzi et al., J. Chem. Phys. 152 154105 (2020);
          URL http://www.quantum-espresso.org", 
     in publications or presentations arising from this work. More details at
     http://www.quantum-espresso.org/quote

     Parallel version (MPI), running on     1 processors

     MPI processes distributed on     1 nodes
     85001 MiB available memory on the printing compute node when the environment starts
 
     Waiting for input...
     Reading input from standard input

     Current dimensions of program PWSCF are:
     Max number of different atomic species (ntypx) = 10
     Max number of k-points (npk) =  40000
     Max angular momentum in pseudopotentials (lmaxx) =  4

     Subspace diagonalization in iterative solution of the eigenvalue problem:
     a serial algorithm will be used

 
     G-vector sticks info
     --------------------
     sticks:   dense  smooth     PW     G-vecs:    dense   smooth      PW
     Sum        1333     439    151                31951     6183    1139
 
     Using Slab Decomposition
 


     bravais-lattice index     =            2
     lattice parameter (alat)  =       8.9724  a.u.
     unit-cell volume          =     180.5784 (a.u.)^3
     number of atoms/cell      =            2
     number of atomic types    =            2
     number of electrons       =         8.00
     number of Kohn-Sham states=            4
     kinetic-energy cutoff     =      40.0000  Ry
     charge density cutoff     =     480.0000  Ry
     scf convergence threshold =      1.0E-08
     mixing beta               =       0.7000
     number of iterations used =            8  plain     mixing
     energy convergence thresh.=      1.0E-04
     force convergence thresh. =      1.0E-03
     press convergence thresh. =      5.0E-01
     Exchange-correlation= SLA  PW   PBE  PBE
                           (   1   4   3   4   0   0   0)
     nstep                     =           50


     celldm(1)=   8.972400  celldm(2)=   0.000000  celldm(3)=   0.000000
     celldm(4)=   0.000000  celldm(5)=   0.000000  celldm(6)=   0.000000

     crystal axes: (cart. coord. in units of alat)
               a(1) = (  -0.500000   0.000000   0.500000 )  
               a(2) = (   0.000000   0.500000   0.500000 )  
               a(3) = (  -0.500000   0.500000   0.000000 )  

     reciprocal axes: (cart. coord. in units 2 pi/alat)
               b(1) = ( -1.000000 -1.000000  1.000000 )  
               b(2) = (  1.000000  1.000000  1.000000 )  
               b(3) = ( -1.000000  1.000000 -1.000000 )  


     PseudoPot. # 1 for B  read from file:
     ../pseudo_dir/B_PBE.UPF
     MD5 check sum: cc6de2960df11db49a60e589f9ebb39b
     Pseudo is Ultrasoft + core correction, Zval =  3.0
     Generated by new atomic code, or converted to UPF format
     Using radial grid of  781 points,  4 beta functions with: 
                l(1) =   0
                l(2) =   0
                l(3) =   1
                l(4) =   1
     Q(r) pseudized with  8 coefficients,  rinner =    1.100   1.100   1.100


     PseudoPot. # 2 for As read from file:
     ../pseudo_dir/As_PBE.UPF
     MD5 check sum: a55e54db9b6ff5e275ac1f228f32106c
     Pseudo is Ultrasoft + core correction, Zval =  5.0
     Generated by new atomic code, or converted to UPF format
     Using radial grid of  875 points,  6 beta functions with: 
                l(1) =   0
                l(2) =   0
                l(3) =   1
                l(4) =   1
                l(5) =   2
                l(6) =   2
     Q(r) pseudized with  8 coefficients,  rinner =    1.300   1.300   1.300
                                                       1.300   1.300

     atomic species   valence    mass     pseudopotential
        B              3.00    10.81100     B ( 1.00)
        As             5.00    74.92160     As( 1.00)

     24 Sym. Ops. (no inversion) found



   Cartesian axes

     site n.     atom                  positions (alat units)
         1           B   tau(   1) = (   0.0000000   0.0000000   0.0000000  )
         2           As  tau(   2) = (  -0.2500000   0.2500000   0.2500000  )

     number of k points=    29
                       cart. coord. in units 2pi/alat
        k(    1) = (   0.0000000   0.0000000   0.0000000), wk =   0.0039062
        k(    2) = (  -0.1250000   0.1250000  -0.1250000), wk =   0.0312500
        k(    3) = (  -0.2500000   0.2500000  -0.2500000), wk =   0.0312500
        k(    4) = (  -0.3750000   0.3750000  -0.3750000), wk =   0.0312500
        k(    5) = (   0.5000000  -0.5000000   0.5000000), wk =   0.0156250
        k(    6) = (   0.0000000   0.2500000   0.0000000), wk =   0.0234375
        k(    7) = (  -0.1250000   0.3750000  -0.1250000), wk =   0.0937500
        k(    8) = (  -0.2500000   0.5000000  -0.2500000), wk =   0.0937500
        k(    9) = (   0.6250000  -0.3750000   0.6250000), wk =   0.0937500
        k(   10) = (   0.5000000  -0.2500000   0.5000000), wk =   0.0937500
        k(   11) = (   0.3750000  -0.1250000   0.3750000), wk =   0.0937500
        k(   12) = (   0.2500000   0.0000000   0.2500000), wk =   0.0468750
        k(   13) = (   0.0000000   0.5000000   0.0000000), wk =   0.0234375
        k(   14) = (  -0.1250000   0.6250000  -0.1250000), wk =   0.0937500
        k(   15) = (   0.7500000  -0.2500000   0.7500000), wk =   0.0937500
        k(   16) = (   0.6250000  -0.1250000   0.6250000), wk =   0.0937500
        k(   17) = (   0.5000000   0.0000000   0.5000000), wk =   0.0468750
        k(   18) = (   0.0000000   0.7500000   0.0000000), wk =   0.0234375
        k(   19) = (   0.8750000  -0.1250000   0.8750000), wk =   0.0937500
        k(   20) = (   0.7500000   0.0000000   0.7500000), wk =   0.0468750
        k(   21) = (   0.0000000  -1.0000000   0.0000000), wk =   0.0117188
        k(   22) = (  -0.2500000   0.5000000   0.0000000), wk =   0.0937500
        k(   23) = (   0.6250000  -0.3750000   0.8750000), wk =   0.1875000
        k(   24) = (   0.5000000  -0.2500000   0.7500000), wk =   0.0937500
        k(   25) = (   0.7500000  -0.2500000   1.0000000), wk =   0.0937500
        k(   26) = (   0.6250000  -0.1250000   0.8750000), wk =   0.1875000
        k(   27) = (   0.5000000   0.0000000   0.7500000), wk =   0.0937500
        k(   28) = (  -0.2500000  -1.0000000   0.0000000), wk =   0.0468750
        k(   29) = (  -0.5000000  -1.0000000   0.0000000), wk =   0.0234375

     Dense  grid:    31951 G-vectors     FFT dimensions: (  45,  45,  45)

     Smooth grid:     6183 G-vectors     FFT dimensions: (  25,  25,  25)

     Estimated max dynamical RAM per process >     127.06 MB

     Initial potential from superposition of free atoms

     starting charge       7.9995, renormalised to       8.0000
     Starting wfcs are    8 randomized atomic wfcs

     total cpu time spent up to now is        7.3 secs

     Self-consistent Calculation

     iteration #  1     ecut=    40.00 Ry     beta= 0.70
     CG style diagonalization
     ethr =  1.00E-02,  avg # of iterations =  2.6

     total cpu time spent up to now is        8.5 secs

     total energy              =     -46.62597806 Ry
     estimated scf accuracy    <       0.14707201 Ry

     iteration #  2     ecut=    40.00 Ry     beta= 0.70
     CG style diagonalization
     ethr =  1.84E-03,  avg # of iterations =  4.1

     total cpu time spent up to now is        9.7 secs

     total energy              =     -46.65796399 Ry
     estimated scf accuracy    <       0.03302954 Ry

     iteration #  3     ecut=    40.00 Ry     beta= 0.70
     CG style diagonalization
     ethr =  4.13E-04,  avg # of iterations =  4.1

     total cpu time spent up to now is       11.0 secs

     total energy              =     -46.66494125 Ry
     estimated scf accuracy    <       0.00041608 Ry

     iteration #  4     ecut=    40.00 Ry     beta= 0.70
     CG style diagonalization
     ethr =  5.20E-06,  avg # of iterations =  4.5

     total cpu time spent up to now is       12.4 secs

     total energy              =     -46.66517880 Ry
     estimated scf accuracy    <       0.00009412 Ry

     iteration #  5     ecut=    40.00 Ry     beta= 0.70
     CG style diagonalization
     ethr =  1.18E-06,  avg # of iterations =  4.0

     total cpu time spent up to now is       13.6 secs

     total energy              =     -46.66519964 Ry
     estimated scf accuracy    <       0.00000122 Ry

     iteration #  6     ecut=    40.00 Ry     beta= 0.70
     CG style diagonalization
     ethr =  1.53E-08,  avg # of iterations =  5.8

     total cpu time spent up to now is       15.2 secs

     total energy              =     -46.66520164 Ry
     estimated scf accuracy    <       0.00000004 Ry

     iteration #  7     ecut=    40.00 Ry     beta= 0.70
     CG style diagonalization
     ethr =  5.32E-10,  avg # of iterations =  5.2

     total cpu time spent up to now is       16.6 secs

     total energy              =     -46.66520167 Ry
     estimated scf accuracy    <       0.00000004 Ry

     iteration #  8     ecut=    40.00 Ry     beta= 0.70
     CG style diagonalization
     ethr =  5.32E-10,  avg # of iterations =  4.1

     total cpu time spent up to now is       17.9 secs

     End of self-consistent calculation

          k = 0.0000 0.0000 0.0000 (   749 PWs)   bands (ev):

    -6.6681   8.8976   8.8976   8.8976

          k =-0.1250 0.1250-0.1250 (   779 PWs)   bands (ev):

    -6.4078   6.9164   8.4518   8.4518

          k =-0.2500 0.2500-0.2500 (   778 PWs)   bands (ev):

    -5.6493   3.9018   7.7318   7.7318

          k =-0.3750 0.3750-0.3750 (   769 PWs)   bands (ev):

    -4.5188   1.2779   7.2276   7.2276

          k = 0.5000-0.5000 0.5000 (   778 PWs)   bands (ev):

    -3.7321  -0.0216   7.0533   7.0533

          k = 0.0000 0.2500 0.0000 (   777 PWs)   bands (ev):

    -6.3206   7.4647   7.7118   7.7118

          k =-0.1250 0.3750-0.1250 (   781 PWs)   bands (ev):

    -5.7252   4.8968   6.9598   7.2436

          k =-0.2500 0.5000-0.2500 (   783 PWs)   bands (ev):

    -4.6968   2.1959   6.4498   6.5492

          k = 0.6250-0.3750 0.6250 (   773 PWs)   bands (ev):

    -3.6409   0.3313   5.8299   6.5606

          k = 0.5000-0.2500 0.5000 (   778 PWs)   bands (ev):

    -3.9331   0.7931   5.5643   6.9742

          k = 0.3750-0.1250 0.3750 (   781 PWs)   bands (ev):

    -5.0805   3.0582   5.7410   7.6874

          k = 0.2500 0.0000 0.2500 (   775 PWs)   bands (ev):

    -5.9799   5.6152   6.6037   8.4104

          k = 0.0000 0.5000 0.0000 (   769 PWs)   bands (ev):

    -5.2990   4.7943   6.1445   6.1445

          k =-0.1250 0.6250-0.1250 (   775 PWs)   bands (ev):

    -4.4179   2.9151   5.1826   5.6774

          k = 0.7500-0.2500 0.7500 (   768 PWs)   bands (ev):

    -3.3233   1.0904   4.0860   5.6676

          k = 0.6250-0.1250 0.6250 (   773 PWs)   bands (ev):

    -3.0940   0.7951   3.4478   6.1110

          k = 0.5000 0.0000 0.5000 (   784 PWs)   bands (ev):

    -4.0999   2.1918   3.7127   6.8996

          k = 0.0000 0.7500 0.0000 (   777 PWs)   bands (ev):

    -3.7096   2.0223   5.1065   5.1065

          k = 0.8750-0.1250 0.8750 (   766 PWs)   bands (ev):

    -2.7758   0.8725   4.0308   4.9916

          k = 0.7500 0.0000 0.7500 (   762 PWs)   bands (ev):

    -2.4262   0.6639   2.8259   5.3532

          k = 0.0000-1.0000 0.0000 (   774 PWs)   bands (ev):

    -2.3879   0.2733   4.7498   4.7498

          k =-0.2500 0.5000 0.0000 (   776 PWs)   bands (ev):

    -4.9854   3.6630   5.1128   6.8459

          k = 0.6250-0.3750 0.8750 (   775 PWs)   bands (ev):

    -3.8930   1.6541   4.3908   6.1132

          k = 0.5000-0.2500 0.7500 (   764 PWs)   bands (ev):

    -3.1464   0.4953   4.2728   5.7685

          k = 0.7500-0.2500 1.0000 (   763 PWs)   bands (ev):

    -3.4732   1.7792   4.1797   4.9494

          k = 0.6250-0.1250 0.8750 (   762 PWs)   bands (ev):

    -2.5979   0.8425   3.2217   4.6821

          k = 0.5000 0.0000 0.7500 (   769 PWs)   bands (ev):

    -2.9017   1.1536   2.9823   5.2139

          k =-0.2500-1.0000 0.0000 (   770 PWs)   bands (ev):

    -2.3049   0.4812   3.9934   4.1071

          k =-0.5000-1.0000 0.0000 (   772 PWs)   bands (ev):

    -2.2158   0.7554   3.3020   3.5915

     highest occupied level (ev):     8.8976

!    total energy              =     -46.66520168 Ry
     estimated scf accuracy    <          2.1E-09 Ry

     The total energy is the sum of the following terms:
     one-electron contribution =       6.79136558 Ry
     hartree contribution      =       1.23578751 Ry
     xc contribution           =     -34.63714216 Ry
     ewald contribution        =     -20.05521261 Ry

     convergence has been achieved in   8 iterations

     Forces acting on atoms (cartesian axes, Ry/au):

     atom    1 type  1   force =     0.00000000    0.00000000    0.00000000
     atom    2 type  2   force =     0.00000000    0.00000000   -0.00000000

     Total force =     0.000000     Total SCF correction =     0.000000


     Computing stress (Cartesian axis) and pressure

          total   stress  (Ry/bohr**3)                   (kbar)     P=       64.92
   0.00044134  -0.00000000   0.00000000           64.92       -0.00        0.00
  -0.00000000   0.00044134  -0.00000000           -0.00       64.92       -0.00
   0.00000000  -0.00000000   0.00044134            0.00       -0.00       64.92


     BFGS Geometry Optimization
     Energy error            =      0.0E+00 Ry
     Gradient error          =      1.2E-32 Ry/Bohr
     Cell gradient error     =      6.5E+01 kbar

     number of scf cycles    =   1
     number of bfgs steps    =   0

     enthalpy           new  =     -46.6650789241 Ry

     new trust radius        =       0.0296079574 bohr
     new conv_thr            =       0.0000000100 Ry

     new unit-cell volume =    186.61248 a.u.^3 (    27.65312 Ang^3 )
     density =      5.14815 g/cm^3

CELL_PARAMETERS (alat=  8.97240000)
  -0.505508274  -0.000000000   0.505508274
  -0.000000000   0.505508274   0.505508274
  -0.505508274   0.505508274  -0.000000000

ATOMIC_POSITIONS (crystal)
B            -0.0000000000        0.0000000000       -0.0000000000
As            0.2500000000        0.2500000000        0.2500000000



     Writing config-only to output data dir ./pbe_1.save/
     NEW-OLD atomic charge density approx. for the potential
     extrapolated charge    8.25866, renormalised to    8.00000

     total cpu time spent up to now is       28.1 secs

     Self-consistent Calculation

     iteration #  1     ecut=    40.00 Ry     beta= 0.70
     CG style diagonalization
     ethr =  1.00E-06,  avg # of iterations =  5.2

     total cpu time spent up to now is       29.7 secs

     total energy              =     -46.66579435 Ry
     estimated scf accuracy    <       0.00063751 Ry

     iteration #  2     ecut=    40.00 Ry     beta= 0.70
     CG style diagonalization
     ethr =  7.97E-06,  avg # of iterations =  4.9

     total cpu time spent up to now is       31.1 secs

     total energy              =     -46.66683297 Ry
     estimated scf accuracy    <       0.00075632 Ry

     iteration #  3     ecut=    40.00 Ry     beta= 0.70
     CG style diagonalization
     ethr =  7.97E-06,  avg # of iterations =  3.1

     total cpu time spent up to now is       32.3 secs

     total energy              =     -46.66682899 Ry
     estimated scf accuracy    <       0.00015873 Ry

     iteration #  4     ecut=    40.00 Ry     beta= 0.70
     CG style diagonalization
     ethr =  1.98E-06,  avg # of iterations =  3.5

     total cpu time spent up to now is       33.6 secs

     total energy              =     -46.66685352 Ry
     estimated scf accuracy    <       0.00004095 Ry

     iteration #  5     ecut=    40.00 Ry     beta= 0.70
     CG style diagonalization
     ethr =  5.12E-07,  avg # of iterations =  4.2

     total cpu time spent up to now is       34.9 secs

     total energy              =     -46.66681663 Ry
     estimated scf accuracy    <       0.00008699 Ry

     iteration #  6     ecut=    40.00 Ry     beta= 0.70
     CG style diagonalization
     ethr =  5.12E-07,  avg # of iterations =  4.3

     total cpu time spent up to now is       36.3 secs

     total energy              =     -46.66683579 Ry
     estimated scf accuracy    <       0.00000160 Ry

     iteration #  7     ecut=    40.00 Ry     beta= 0.70
     CG style diagonalization
     ethr =  2.00E-08,  avg # of iterations =  4.0

     total cpu time spent up to now is       37.6 secs

     total energy              =     -46.66683625 Ry
     estimated scf accuracy    <       0.00000004 Ry

     iteration #  8     ecut=    40.00 Ry     beta= 0.70
     CG style diagonalization
     ethr =  4.97E-10,  avg # of iterations =  4.4

     total cpu time spent up to now is       39.0 secs

     total energy              =     -46.66683627 Ry
     estimated scf accuracy    <       0.00000002 Ry

     iteration #  9     ecut=    40.00 Ry     beta= 0.70
     CG style diagonalization
     ethr =  2.69E-10,  avg # of iterations =  4.1

     total cpu time spent up to now is       40.3 secs

     total energy              =     -46.66683626 Ry
     estimated scf accuracy    <       0.00000003 Ry

     iteration # 10     ecut=    40.00 Ry     beta= 0.70
     CG style diagonalization
     ethr =  2.69E-10,  avg # of iterations =  4.0

     total cpu time spent up to now is       41.6 secs

     End of self-consistent calculation

          k = 0.0000 0.0000 0.0000 (   749 PWs)   bands (ev):

    -6.8123   8.4532   8.4532   8.4532

          k =-0.1236 0.1236-0.1236 (   779 PWs)   bands (ev):

    -6.5598   6.5033   8.0235   8.0235

          k =-0.2473 0.2473-0.2473 (   778 PWs)   bands (ev):

    -5.8256   3.5621   7.3251   7.3251

          k =-0.3709 0.3709-0.3709 (   769 PWs)   bands (ev):

    -4.7392   1.0181   6.8342   6.8342

          k = 0.4946-0.4946 0.4946 (   778 PWs)   bands (ev):

    -3.9964  -0.2247   6.6643   6.6643

          k = 0.0000 0.2473 0.0000 (   777 PWs)   bands (ev):

    -6.4752   6.9966   7.3127   7.3127

          k =-0.1236 0.3709-0.1236 (   781 PWs)   bands (ev):

    -5.8986   4.5167   6.5839   6.8310

          k =-0.2473 0.4946-0.2473 (   783 PWs)   bands (ev):

    -4.9073   1.8984   6.0596   6.1834

          k = 0.6182-0.3709 0.6182 (   773 PWs)   bands (ev):

    -3.9046   0.1090   5.4606   6.1915

          k = 0.4946-0.2473 0.4946 (   778 PWs)   bands (ev):

    -4.1796   0.5491   5.2082   6.5896

          k = 0.3709-0.1236 0.3709 (   781 PWs)   bands (ev):

    -5.2765   2.7325   5.3890   7.2785

          k = 0.2473 0.0000 0.2473 (   775 PWs)   bands (ev):

    -6.1452   5.2108   6.2424   7.9778

          k = 0.0000 0.4946 0.0000 (   769 PWs)   bands (ev):

    -5.4856   4.3652   5.7953   5.7953

          k =-0.1236 0.6182-0.1236 (   775 PWs)   bands (ev):

    -4.6358   2.5540   4.8543   5.3415

          k = 0.7418-0.2473 0.7418 (   768 PWs)   bands (ev):

    -3.5926   0.8115   3.7848   5.3303

          k = 0.6182-0.1236 0.6182 (   773 PWs)   bands (ev):

    -3.3797   0.5364   3.1689   5.7580

          k = 0.4946 0.0000 0.4946 (   784 PWs)   bands (ev):

    -4.3337   1.8645   3.4404   6.5191

          k =-0.0000 0.7418-0.0000 (   777 PWs)   bands (ev):

    -3.9537   1.6767   4.7883   4.7883

          k = 0.8655-0.1236 0.8655 (   766 PWs)   bands (ev):

    -3.0674   0.5760   3.7548   4.6763

          k = 0.7418-0.0000 0.7418 (   762 PWs)   bands (ev):

    -2.7471   0.3835   2.5998   5.0258

          k = 0.0000-0.9891 0.0000 (   774 PWs)   bands (ev):

    -2.7048   0.0130   4.4422   4.4422

          k =-0.2473 0.4946-0.0000 (   776 PWs)   bands (ev):

    -5.1836   3.2901   4.7966   6.4627

          k = 0.6182-0.3709 0.8655 (   775 PWs)   bands (ev):

    -4.1357   1.3594   4.0765   5.7620

          k = 0.4946-0.2473 0.7418 (   764 PWs)   bands (ev):

    -3.4324   0.2595   3.9518   5.4333

          k = 0.7418-0.2473 0.9891 (   763 PWs)   bands (ev):

    -3.7303   1.4439   3.8935   4.6447

          k = 0.6182-0.1236 0.8655 (   762 PWs)   bands (ev):

    -2.9067   0.5558   2.9703   4.3865

          k = 0.4946-0.0000 0.7418 (   769 PWs)   bands (ev):

    -3.1935   0.8521   2.7418   4.8975

          k =-0.2473-0.9891 0.0000 (   770 PWs)   bands (ev):

    -2.6296   0.2087   3.7168   3.8316

          k =-0.4946-0.9891 0.0000 (   772 PWs)   bands (ev):

    -2.5493   0.4627   3.0587   3.3414

     highest occupied level (ev):     8.4532

!    total energy              =     -46.66683626 Ry
     estimated scf accuracy    <          6.0E-10 Ry

     The total energy is the sum of the following terms:
     one-electron contribution =       6.49526278 Ry
     hartree contribution      =       1.26458807 Ry
     xc contribution           =     -34.59000623 Ry
     ewald contribution        =     -19.83668087 Ry

     convergence has been achieved in  10 iterations

     Forces acting on atoms (cartesian axes, Ry/au):

     atom    1 type  1   force =    -0.00000000   -0.00000000   -0.00000000
     atom    2 type  2   force =     0.00000000    0.00000000    0.00000000

     Total force =     0.000000     Total SCF correction =     0.000000


     Computing stress (Cartesian axis) and pressure

          total   stress  (Ry/bohr**3)                   (kbar)     P=       16.09
   0.00010938  -0.00000000  -0.00000000           16.09       -0.00       -0.00
  -0.00000000   0.00010938  -0.00000000           -0.00       16.09       -0.00
  -0.00000000  -0.00000000   0.00010938           -0.00       -0.00       16.09

     Energy error            =      1.6E-03 Ry
     Gradient error          =      6.5E-32 Ry/Bohr
     Cell gradient error     =      1.6E+01 kbar

     number of scf cycles    =   2
     number of bfgs steps    =   1

     enthalpy           old  =     -46.6650789241 Ry
     enthalpy           new  =     -46.6667094061 Ry

     CASE: enthalpy          _new < enthalpy          _old

     new trust radius        =       0.0100365000 bohr
     new conv_thr            =            1.0E-10 Ry

     new unit-cell volume =    188.67661 a.u.^3 (    27.95899 Ang^3 )
     density =      5.09183 g/cm^3

CELL_PARAMETERS (alat=  8.97240000)
  -0.507365267  -0.000000000   0.507365267
  -0.000000000   0.507365267   0.507365267
  -0.507365267   0.507365267  -0.000000000

ATOMIC_POSITIONS (crystal)
B            -0.0000000000       -0.0000000000        0.0000000000
As            0.2500000000        0.2500000000        0.2500000000



     Writing config-only to output data dir ./pbe_1.save/
     NEW-OLD atomic charge density approx. for the potential
     extrapolated charge    8.08751, renormalised to    8.00000

     total cpu time spent up to now is       51.6 secs

     Self-consistent Calculation

     iteration #  1     ecut=    40.00 Ry     beta= 0.70
     CG style diagonalization
     ethr =  1.00E-06,  avg # of iterations =  3.9

     total cpu time spent up to now is       52.9 secs

     total energy              =     -46.66684140 Ry
     estimated scf accuracy    <       0.00007070 Ry

     iteration #  2     ecut=    40.00 Ry     beta= 0.70
     CG style diagonalization
     ethr =  8.84E-07,  avg # of iterations =  4.9

     total cpu time spent up to now is       54.4 secs

     total energy              =     -46.66695603 Ry
     estimated scf accuracy    <       0.00007716 Ry

     iteration #  3     ecut=    40.00 Ry     beta= 0.70
     CG style diagonalization
     ethr =  8.84E-07,  avg # of iterations =  3.0

     total cpu time spent up to now is       55.5 secs

     total energy              =     -46.66695453 Ry
     estimated scf accuracy    <       0.00001682 Ry

     iteration #  4     ecut=    40.00 Ry     beta= 0.70
     CG style diagonalization
     ethr =  2.10E-07,  avg # of iterations =  3.8

     total cpu time spent up to now is       56.8 secs

     total energy              =     -46.66696000 Ry
     estimated scf accuracy    <       0.00000258 Ry

     iteration #  5     ecut=    40.00 Ry     beta= 0.70
     CG style diagonalization
     ethr =  3.23E-08,  avg # of iterations =  4.7

     total cpu time spent up to now is       58.2 secs

     total energy              =     -46.66695278 Ry
     estimated scf accuracy    <       0.00002035 Ry

     iteration #  6     ecut=    40.00 Ry     beta= 0.70
     CG style diagonalization
     ethr =  3.23E-08,  avg # of iterations =  4.8

     total cpu time spent up to now is       59.7 secs

     total energy              =     -46.66695618 Ry
     estimated scf accuracy    <       0.00000002 Ry

     iteration #  7     ecut=    40.00 Ry     beta= 0.70
     CG style diagonalization
     ethr =  2.64E-10,  avg # of iterations =  4.9

     total cpu time spent up to now is       61.1 secs

     total energy              =     -46.66695620 Ry
     estimated scf accuracy    <          2.7E-10 Ry

     iteration #  8     ecut=    40.00 Ry     beta= 0.70
     CG style diagonalization
     ethr =  3.40E-12,  avg # of iterations =  5.9

     total cpu time spent up to now is       62.7 secs

     total energy              =     -46.66695620 Ry
     estimated scf accuracy    <          2.5E-10 Ry

     iteration #  9     ecut=    40.00 Ry     beta= 0.70
     CG style diagonalization
     ethr =  3.16E-12,  avg # of iterations =  3.3

     total cpu time spent up to now is       64.0 secs

     total energy              =     -46.66695620 Ry
     estimated scf accuracy    <          4.5E-10 Ry

     iteration # 10     ecut=    40.00 Ry     beta= 0.70
     CG style diagonalization
     ethr =  3.16E-12,  avg # of iterations =  4.5

     total cpu time spent up to now is       65.3 secs

     total energy              =     -46.66695620 Ry
     estimated scf accuracy    <          9.3E-10 Ry

     iteration # 11     ecut=    40.00 Ry     beta= 0.70
     CG style diagonalization
     ethr =  3.16E-12,  avg # of iterations =  3.0

     total cpu time spent up to now is       66.5 secs

     total energy              =     -46.66695620 Ry
     estimated scf accuracy    <          4.5E-10 Ry

     iteration # 12     ecut=    40.00 Ry     beta= 0.70
     CG style diagonalization
     ethr =  3.16E-12,  avg # of iterations =  3.6

     total cpu time spent up to now is       67.8 secs

     End of self-consistent calculation

          k = 0.0000 0.0000 0.0000 (   749 PWs)   bands (ev):

    -6.8597   8.3072   8.3072   8.3072

          k =-0.1232 0.1232-0.1232 (   779 PWs)   bands (ev):

    -6.6099   6.3671   7.8828   7.8828

          k =-0.2464 0.2464-0.2464 (   778 PWs)   bands (ev):

    -5.8837   3.4502   7.1917   7.1917

          k =-0.3696 0.3696-0.3696 (   769 PWs)   bands (ev):

    -4.8118   0.9327   6.7052   6.7052

          k = 0.4927-0.4927 0.4927 (   778 PWs)   bands (ev):

    -4.0833  -0.2917   6.5367   6.5367

          k = 0.0000 0.2464 0.0000 (   777 PWs)   bands (ev):

    -6.5261   6.8423   7.1817   7.1817

          k =-0.1232 0.3696-0.1232 (   781 PWs)   bands (ev):

    -5.9557   4.3912   6.4606   6.6959

          k =-0.2464 0.4927-0.2464 (   783 PWs)   bands (ev):

    -4.9767   1.8004   5.9318   6.0634

          k = 0.6159-0.3696 0.6159 (   773 PWs)   bands (ev):

    -3.9914   0.0357   5.3396   6.0704

          k = 0.4927-0.2464 0.4927 (   778 PWs)   bands (ev):

    -4.2609   0.4688   5.0915   6.4635

          k = 0.3696-0.1232 0.3696 (   781 PWs)   bands (ev):

    -5.3410   2.6252   5.2736   7.1444

          k = 0.2464 0.0000 0.2464 (   775 PWs)   bands (ev):

    -6.1997   5.0775   6.1238   7.8358

          k = 0.0000 0.4927 0.0000 (   769 PWs)   bands (ev):

    -5.5471   4.2241   5.6807   5.6807

          k =-0.1232 0.6159-0.1232 (   775 PWs)   bands (ev):

    -4.7077   2.4352   4.7468   5.2313

          k = 0.7391-0.2464 0.7391 (   768 PWs)   bands (ev):

    -3.6814   0.7196   3.6863   5.2197

          k = 0.6159-0.1232 0.6159 (   773 PWs)   bands (ev):

    -3.4738   0.4510   3.0778   5.6421

          k = 0.4927 0.0000 0.4927 (   784 PWs)   bands (ev):

    -4.4108   1.7569   3.3512   6.3942

          k = 0.0000 0.7391 0.0000 (   777 PWs)   bands (ev):

    -4.0343   1.5633   4.6840   4.6840

          k = 0.8623-0.1232 0.8623 (   766 PWs)   bands (ev):

    -3.1636   0.4788   3.6642   4.5729

          k = 0.7391-0.0000 0.7391 (   762 PWs)   bands (ev):

    -2.8527   0.2915   2.5255   4.9184

          k = 0.0000-0.9855 0.0000 (   774 PWs)   bands (ev):

    -2.8092  -0.0725   4.3412   4.3412

          k =-0.2464 0.4927-0.0000 (   776 PWs)   bands (ev):

    -5.2490   3.1674   4.6929   6.3370

          k = 0.6159-0.3696 0.8623 (   775 PWs)   bands (ev):

    -4.2158   1.2623   3.9738   5.6467

          k = 0.4927-0.2464 0.7391 (   764 PWs)   bands (ev):

    -3.5265   0.1816   3.8470   5.3233

          k = 0.7391-0.2464 0.9855 (   763 PWs)   bands (ev):

    -3.8151   1.3340   3.7997   4.5447

          k = 0.6159-0.1232 0.8623 (   762 PWs)   bands (ev):

    -3.0084   0.4616   2.8879   4.2895

          k = 0.4927-0.0000 0.7391 (   769 PWs)   bands (ev):

    -3.2896   0.7531   2.6631   4.7937

          k =-0.2464-0.9855 0.0000 (   770 PWs)   bands (ev):

    -2.7364   0.1193   3.6261   3.7411

          k =-0.4927-0.9855 0.0000 (   772 PWs)   bands (ev):

    -2.6590   0.3667   2.9788   3.2592

     highest occupied level (ev):     8.3072

!    total energy              =     -46.66695620 Ry
     estimated scf accuracy    <          3.1E-11 Ry

     The total energy is the sum of the following terms:
     one-electron contribution =       6.39719618 Ry
     hartree contribution      =       1.27444729 Ry
     xc contribution           =     -34.57452245 Ry
     ewald contribution        =     -19.76407722 Ry

     convergence has been achieved in  12 iterations

     Forces acting on atoms (cartesian axes, Ry/au):

     atom    1 type  1   force =    -0.00000000    0.00000000    0.00000000
     atom    2 type  2   force =    -0.00000000    0.00000000   -0.00000000

     Total force =     0.000000     Total SCF correction =     0.000000


     Computing stress (Cartesian axis) and pressure

          total   stress  (Ry/bohr**3)                   (kbar)     P=        1.14
   0.00000774   0.00000000  -0.00000000            1.14        0.00       -0.00
   0.00000000   0.00000774  -0.00000000            0.00        1.14       -0.00
   0.00000000   0.00000000   0.00000774            0.00        0.00        1.14

     Energy error            =      1.2E-04 Ry
     Gradient error          =      4.9E-32 Ry/Bohr
     Cell gradient error     =      1.0E+00 kbar

     number of scf cycles    =   3
     number of bfgs steps    =   2

     enthalpy           old  =     -46.6667094061 Ry
     enthalpy           new  =     -46.6668279387 Ry

     CASE: enthalpy          _new < enthalpy          _old

     new trust radius        =       0.0007042251 bohr
     new conv_thr            =            1.0E-10 Ry

     new unit-cell volume =    188.82175 a.u.^3 (    27.98050 Ang^3 )
     density =      5.08791 g/cm^3

CELL_PARAMETERS (alat=  8.97240000)
  -0.507495326  -0.000000000   0.507495326
  -0.000000000   0.507495326   0.507495326
  -0.507495326   0.507495326  -0.000000000

ATOMIC_POSITIONS (crystal)
B            -0.0000000000       -0.0000000000        0.0000000000
As            0.2500000000        0.2500000000        0.2500000000



     Writing config-only to output data dir ./pbe_1.save/
     NEW-OLD atomic charge density approx. for the potential
     extrapolated charge    8.00615, renormalised to    8.00000

     total cpu time spent up to now is       77.7 secs

     Self-consistent Calculation

     iteration #  1     ecut=    40.00 Ry     beta= 0.70
     CG style diagonalization
     ethr =  1.00E-06,  avg # of iterations =  2.0

     Threshold (ethr) on eigenvalues was too large:
     Diagonalizing with lowered threshold

     CG style diagonalization
     ethr =  3.08E-09,  avg # of iterations =  3.4

     total cpu time spent up to now is       79.7 secs

     total energy              =     -46.66695624 Ry
     estimated scf accuracy    <       0.00000037 Ry

     iteration #  2     ecut=    40.00 Ry     beta= 0.70
     CG style diagonalization
     ethr =  4.61E-09,  avg # of iterations =  4.8

     total cpu time spent up to now is       81.1 secs

     total energy              =     -46.66695682 Ry
     estimated scf accuracy    <       0.00000041 Ry

     iteration #  3     ecut=    40.00 Ry     beta= 0.70
     CG style diagonalization
     ethr =  4.61E-09,  avg # of iterations =  3.0

     total cpu time spent up to now is       82.3 secs

     total energy              =     -46.66695681 Ry
     estimated scf accuracy    <       0.00000009 Ry

     iteration #  4     ecut=    40.00 Ry     beta= 0.70
     CG style diagonalization
     ethr =  1.07E-09,  avg # of iterations =  3.8

     total cpu time spent up to now is       83.6 secs

     total energy              =     -46.66695685 Ry
     estimated scf accuracy    <       0.00000001 Ry

     iteration #  5     ecut=    40.00 Ry     beta= 0.70
     CG style diagonalization
     ethr =  1.71E-10,  avg # of iterations =  5.0

     total cpu time spent up to now is       85.0 secs

     total energy              =     -46.66695678 Ry
     estimated scf accuracy    <       0.00000018 Ry

     iteration #  6     ecut=    40.00 Ry     beta= 0.70
     CG style diagonalization
     ethr =  1.71E-10,  avg # of iterations =  5.0

     total cpu time spent up to now is       86.5 secs

     total energy              =     -46.66695682 Ry
     estimated scf accuracy    <          3.3E-10 Ry

     iteration #  7     ecut=    40.00 Ry     beta= 0.70
     CG style diagonalization
     ethr =  4.11E-12,  avg # of iterations =  4.4

     total cpu time spent up to now is       87.9 secs

     End of self-consistent calculation

          k = 0.0000 0.0000 0.0000 (   749 PWs)   bands (ev):

    -6.8630   8.2970   8.2970   8.2970

          k =-0.1232 0.1232-0.1232 (   779 PWs)   bands (ev):

    -6.6133   6.3576   7.8730   7.8730

          k =-0.2463 0.2463-0.2463 (   778 PWs)   bands (ev):

    -5.8878   3.4424   7.1824   7.1824

          k =-0.3695 0.3695-0.3695 (   769 PWs)   bands (ev):

    -4.8169   0.9267   6.6962   6.6962

          k = 0.4926-0.4926 0.4926 (   778 PWs)   bands (ev):

    -4.0894  -0.2964   6.5279   6.5279

          k = 0.0000 0.2463 0.0000 (   777 PWs)   bands (ev):

    -6.5296   6.8315   7.1726   7.1726

          k =-0.1232 0.3695-0.1232 (   781 PWs)   bands (ev):

    -5.9596   4.3825   6.4520   6.6865

          k =-0.2463 0.4926-0.2463 (   783 PWs)   bands (ev):

    -4.9816   1.7936   5.9229   6.0550

          k = 0.6158-0.3695 0.6158 (   773 PWs)   bands (ev):

    -3.9975   0.0306   5.3312   6.0620

          k = 0.4926-0.2463 0.4926 (   778 PWs)   bands (ev):

    -4.2665   0.4632   5.0834   6.4547

          k = 0.3695-0.1232 0.3695 (   781 PWs)   bands (ev):

    -5.3455   2.6177   5.2656   7.1351

          k = 0.2463-0.0000 0.2463 (   775 PWs)   bands (ev):

    -6.2035   5.0682   6.1156   7.8259

          k = 0.0000 0.4926 0.0000 (   769 PWs)   bands (ev):

    -5.5514   4.2143   5.6728   5.6728

          k =-0.1232 0.6158-0.1232 (   775 PWs)   bands (ev):

    -4.7127   2.4270   4.7393   5.2237

          k = 0.7389-0.2463 0.7389 (   768 PWs)   bands (ev):

    -3.6876   0.7132   3.6795   5.2120

          k = 0.6158-0.1232 0.6158 (   773 PWs)   bands (ev):

    -3.4804   0.4450   3.0715   5.6341

          k = 0.4926-0.0000 0.4926 (   784 PWs)   bands (ev):

    -4.4162   1.7494   3.3450   6.3855

          k =-0.0000 0.7389-0.0000 (   777 PWs)   bands (ev):

    -4.0399   1.5554   4.6767   4.6767

          k = 0.8621-0.1232 0.8621 (   766 PWs)   bands (ev):

    -3.1704   0.4721   3.6579   4.5657

          k = 0.7389-0.0000 0.7389 (   762 PWs)   bands (ev):

    -2.8601   0.2851   2.5203   4.9110

          k = 0.0000-0.9852 0.0000 (   774 PWs)   bands (ev):

    -2.8164  -0.0784   4.3342   4.3342

          k =-0.2463 0.4926-0.0000 (   776 PWs)   bands (ev):

    -5.2535   3.1588   4.6857   6.3283

          k = 0.6158-0.3695 0.8621 (   775 PWs)   bands (ev):

    -4.2214   1.2555   3.9667   5.6387

          k = 0.4926-0.2463 0.7389 (   764 PWs)   bands (ev):

    -3.5330   0.1761   3.8397   5.3156

          k = 0.7389-0.2463 0.9852 (   763 PWs)   bands (ev):

    -3.8210   1.3264   3.7932   4.5377

          k = 0.6158-0.1232 0.8621 (   762 PWs)   bands (ev):

    -3.0155   0.4551   2.8822   4.2827

          k = 0.4926-0.0000 0.7389 (   769 PWs)   bands (ev):

    -3.2963   0.7462   2.6576   4.7865

          k =-0.2463-0.9852 0.0000 (   770 PWs)   bands (ev):

    -2.7439   0.1130   3.6198   3.7348

          k =-0.4926-0.9852 0.0000 (   772 PWs)   bands (ev):

    -2.6666   0.3601   2.9732   3.2534

     highest occupied level (ev):     8.2970

!    total energy              =     -46.66695682 Ry
     estimated scf accuracy    <          4.8E-12 Ry

     The total energy is the sum of the following terms:
     one-electron contribution =       6.39035988 Ry
     hartree contribution      =       1.27514229 Ry
     xc contribution           =     -34.57344687 Ry
     ewald contribution        =     -19.75901212 Ry

     convergence has been achieved in   7 iterations

     Forces acting on atoms (cartesian axes, Ry/au):

     atom    1 type  1   force =     0.00000000    0.00000000   -0.00000000
     atom    2 type  2   force =    -0.00000000   -0.00000000    0.00000000

     Total force =     0.000000     Total SCF correction =     0.000000


     Computing stress (Cartesian axis) and pressure

          total   stress  (Ry/bohr**3)                   (kbar)     P=        0.12
   0.00000081   0.00000000  -0.00000000            0.12        0.00       -0.00
   0.00000000   0.00000081   0.00000000            0.00        0.12        0.00
  -0.00000000   0.00000000   0.00000081           -0.00        0.00        0.12

     Energy error            =      5.2E-07 Ry
     Gradient error          =      4.9E-32 Ry/Bohr
     Cell gradient error     =      2.0E-02 kbar

     bfgs converged in   4 scf cycles and   3 bfgs steps
     (criteria: energy <  1.0E-04 Ry, force <  1.0E-03Ry/Bohr, cell <  5.0E-01kbar)

     End of BFGS Geometry Optimization

     Final enthalpy           =     -46.6668284620 Ry

     File ./pbe_1.bfgs deleted, as requested
Begin final coordinates
     new unit-cell volume =    188.82175 a.u.^3 (    27.98050 Ang^3 )
     density =      5.08791 g/cm^3

CELL_PARAMETERS (alat=  8.97240000)
  -0.507495326  -0.000000000   0.507495326
  -0.000000000   0.507495326   0.507495326
  -0.507495326   0.507495326  -0.000000000

ATOMIC_POSITIONS (crystal)
B            -0.0000000000       -0.0000000000        0.0000000000
As            0.2500000000        0.2500000000        0.2500000000
End final coordinates



     Writing config-only to output data dir ./pbe_1.save/

     Final scf calculation at the relaxed structure.
     The G-vectors are recalculated for the final unit cell
     Results may differ from those at the preceding step.
 
     G-vector sticks info
     --------------------
     sticks:   dense  smooth     PW     G-vecs:    dense   smooth      PW
     Sum        1369     451    151                33487     6423    1243
 
     Using Slab Decomposition
 


     bravais-lattice index     =            2
     lattice parameter (alat)  =       8.9724  a.u.
     unit-cell volume          =     188.8217 (a.u.)^3
     number of atoms/cell      =            2
     number of atomic types    =            2
     number of electrons       =         8.00
     number of Kohn-Sham states=            4
     kinetic-energy cutoff     =      40.0000  Ry
     charge density cutoff     =     480.0000  Ry
     scf convergence threshold =      1.0E-10
     mixing beta               =       0.7000
     number of iterations used =            8  plain     mixing
     press convergence thresh. =      5.0E-01
     Exchange-correlation= SLA  PW   PBE  PBE
                           (   1   4   3   4   0   0   0)

     celldm(1)=   8.972400  celldm(2)=   0.000000  celldm(3)=   0.000000
     celldm(4)=   0.000000  celldm(5)=   0.000000  celldm(6)=   0.000000

     crystal axes: (cart. coord. in units of alat)
               a(1) = (  -0.507495  -0.000000   0.507495 )  
               a(2) = (  -0.000000   0.507495   0.507495 )  
               a(3) = (  -0.507495   0.507495  -0.000000 )  

     reciprocal axes: (cart. coord. in units 2 pi/alat)
               b(1) = ( -0.985231 -0.985231  0.985231 )  
               b(2) = (  0.985231  0.985231  0.985231 )  
               b(3) = ( -0.985231  0.985231 -0.985231 )  


     PseudoPot. # 1 for B  read from file:
     ../pseudo_dir/B_PBE.UPF
     MD5 check sum: cc6de2960df11db49a60e589f9ebb39b
     Pseudo is Ultrasoft + core correction, Zval =  3.0
     Generated by new atomic code, or converted to UPF format
     Using radial grid of  781 points,  4 beta functions with: 
                l(1) =   0
                l(2) =   0
                l(3) =   1
                l(4) =   1
     Q(r) pseudized with  8 coefficients,  rinner =    1.100   1.100   1.100


     PseudoPot. # 2 for As read from file:
     ../pseudo_dir/As_PBE.UPF
     MD5 check sum: a55e54db9b6ff5e275ac1f228f32106c
     Pseudo is Ultrasoft + core correction, Zval =  5.0
     Generated by new atomic code, or converted to UPF format
     Using radial grid of  875 points,  6 beta functions with: 
                l(1) =   0
                l(2) =   0
                l(3) =   1
                l(4) =   1
                l(5) =   2
                l(6) =   2
     Q(r) pseudized with  8 coefficients,  rinner =    1.300   1.300   1.300
                                                       1.300   1.300

     atomic species   valence    mass     pseudopotential
        B              3.00    10.81100     B ( 1.00)
        As             5.00    74.92160     As( 1.00)

     24 Sym. Ops. (no inversion) found



   Cartesian axes

     site n.     atom                  positions (alat units)
         1           B   tau(   1) = (  -0.0000000   0.0000000  -0.0000000  )
         2           As  tau(   2) = (  -0.2537477   0.2537477   0.2537477  )

     number of k points=    29
                       cart. coord. in units 2pi/alat
        k(    1) = (   0.0000000   0.0000000   0.0000000), wk =   0.0039062
        k(    2) = (  -0.1231538   0.1231538  -0.1231538), wk =   0.0312500
        k(    3) = (  -0.2463077   0.2463077  -0.2463077), wk =   0.0312500
        k(    4) = (  -0.3694615   0.3694615  -0.3694615), wk =   0.0312500
        k(    5) = (   0.4926154  -0.4926154   0.4926154), wk =   0.0156250
        k(    6) = (   0.0000000   0.2463077   0.0000000), wk =   0.0234375
        k(    7) = (  -0.1231538   0.3694615  -0.1231538), wk =   0.0937500
        k(    8) = (  -0.2463077   0.4926154  -0.2463077), wk =   0.0937500
        k(    9) = (   0.6157692  -0.3694615   0.6157692), wk =   0.0937500
        k(   10) = (   0.4926154  -0.2463077   0.4926154), wk =   0.0937500
        k(   11) = (   0.3694615  -0.1231538   0.3694615), wk =   0.0937500
        k(   12) = (   0.2463077  -0.0000000   0.2463077), wk =   0.0468750
        k(   13) = (   0.0000000   0.4926154   0.0000000), wk =   0.0234375
        k(   14) = (  -0.1231538   0.6157692  -0.1231538), wk =   0.0937500
        k(   15) = (   0.7389231  -0.2463077   0.7389231), wk =   0.0937500
        k(   16) = (   0.6157692  -0.1231538   0.6157692), wk =   0.0937500
        k(   17) = (   0.4926154  -0.0000000   0.4926154), wk =   0.0468750
        k(   18) = (  -0.0000000   0.7389231  -0.0000000), wk =   0.0234375
        k(   19) = (   0.8620769  -0.1231538   0.8620769), wk =   0.0937500
        k(   20) = (   0.7389231  -0.0000000   0.7389231), wk =   0.0468750
        k(   21) = (   0.0000000  -0.9852307   0.0000000), wk =   0.0117188
        k(   22) = (  -0.2463077   0.4926154  -0.0000000), wk =   0.0937500
        k(   23) = (   0.6157692  -0.3694615   0.8620769), wk =   0.1875000
        k(   24) = (   0.4926154  -0.2463077   0.7389231), wk =   0.0937500
        k(   25) = (   0.7389231  -0.2463077   0.9852307), wk =   0.0937500
        k(   26) = (   0.6157692  -0.1231538   0.8620769), wk =   0.1875000
        k(   27) = (   0.4926154  -0.0000000   0.7389231), wk =   0.0937500
        k(   28) = (  -0.2463077  -0.9852307   0.0000000), wk =   0.0468750
        k(   29) = (  -0.4926154  -0.9852307   0.0000000), wk =   0.0234375

     Dense  grid:    33487 G-vectors     FFT dimensions: (  45,  45,  45)

     Smooth grid:     6423 G-vectors     FFT dimensions: (  25,  25,  25)

     Estimated max dynamical RAM per process >     133.02 MB

     Initial potential from superposition of free atoms

     starting charge       7.9995, renormalised to       8.0000
     Starting wfcs are    8 randomized atomic wfcs

     total cpu time spent up to now is      100.3 secs

     Self-consistent Calculation

     iteration #  1     ecut=    40.00 Ry     beta= 0.70
     CG style diagonalization
     ethr =  1.00E-06,  avg # of iterations =  7.8

     total cpu time spent up to now is      102.3 secs

     total energy              =     -46.62763023 Ry
     estimated scf accuracy    <       0.14072324 Ry

     iteration #  2     ecut=    40.00 Ry     beta= 0.70
     CG style diagonalization
     ethr =  1.76E-03,  avg # of iterations =  4.1

     total cpu time spent up to now is      103.7 secs

     total energy              =     -46.65836682 Ry
     estimated scf accuracy    <       0.04225976 Ry

     iteration #  3     ecut=    40.00 Ry     beta= 0.70
     CG style diagonalization
     ethr =  5.28E-04,  avg # of iterations =  4.1

     total cpu time spent up to now is      105.0 secs

     total energy              =     -46.66680886 Ry
     estimated scf accuracy    <       0.00044516 Ry

     iteration #  4     ecut=    40.00 Ry     beta= 0.70
     CG style diagonalization
     ethr =  5.56E-06,  avg # of iterations =  4.0

     total cpu time spent up to now is      106.4 secs

     total energy              =     -46.66698072 Ry
     estimated scf accuracy    <       0.00002845 Ry

     iteration #  5     ecut=    40.00 Ry     beta= 0.70
     CG style diagonalization
     ethr =  3.56E-07,  avg # of iterations =  3.9

     total cpu time spent up to now is      107.7 secs

     total energy              =     -46.66698824 Ry
     estimated scf accuracy    <       0.00000009 Ry

     iteration #  6     ecut=    40.00 Ry     beta= 0.70
     CG style diagonalization
     ethr =  1.07E-09,  avg # of iterations =  7.0

     total cpu time spent up to now is      109.5 secs

     total energy              =     -46.66698878 Ry
     estimated scf accuracy    <       0.00000002 Ry

     iteration #  7     ecut=    40.00 Ry     beta= 0.70
     CG style diagonalization
     ethr =  2.73E-10,  avg # of iterations =  3.9

     total cpu time spent up to now is      110.8 secs

     total energy              =     -46.66698878 Ry
     estimated scf accuracy    <          8.9E-10 Ry

     iteration #  8     ecut=    40.00 Ry     beta= 0.70
     CG style diagonalization
     ethr =  1.11E-11,  avg # of iterations =  4.6

     total cpu time spent up to now is      112.3 secs

     End of self-consistent calculation

          k = 0.0000 0.0000 0.0000 (   869 PWs)   bands (ev):

    -6.8630   8.2967   8.2967   8.2967

          k =-0.1232 0.1232-0.1232 (   815 PWs)   bands (ev):

    -6.6134   6.3575   7.8729   7.8729

          k =-0.2463 0.2463-0.2463 (   812 PWs)   bands (ev):

    -5.8878   3.4422   7.1823   7.1823

          k =-0.3695 0.3695-0.3695 (   811 PWs)   bands (ev):

    -4.8169   0.9267   6.6961   6.6961

          k = 0.4926-0.4926 0.4926 (   796 PWs)   bands (ev):

    -4.0895  -0.2964   6.5278   6.5278

          k = 0.0000 0.2463 0.0000 (   813 PWs)   bands (ev):

    -6.5297   6.8314   7.1725   7.1725

          k =-0.1232 0.3695-0.1232 (   814 PWs)   bands (ev):

    -5.9597   4.3824   6.4519   6.6864

          k =-0.2463 0.4926-0.2463 (   804 PWs)   bands (ev):

    -4.9816   1.7935   5.9228   6.0550

          k = 0.6158-0.3695 0.6158 (   808 PWs)   bands (ev):

    -3.9976   0.0305   5.3311   6.0620

          k = 0.4926-0.2463 0.4926 (   805 PWs)   bands (ev):

    -4.2666   0.4632   5.0833   6.4546

          k = 0.3695-0.1232 0.3695 (   808 PWs)   bands (ev):

    -5.3456   2.6176   5.2655   7.1350

          k = 0.2463-0.0000 0.2463 (   811 PWs)   bands (ev):

    -6.2035   5.0681   6.1155   7.8258

          k = 0.0000 0.4926 0.0000 (   817 PWs)   bands (ev):

    -5.5515   4.2141   5.6726   5.6726

          k =-0.1232 0.6158-0.1232 (   813 PWs)   bands (ev):

    -4.7128   2.4269   4.7392   5.2236

          k = 0.7389-0.2463 0.7389 (   803 PWs)   bands (ev):

    -3.6877   0.7131   3.6794   5.2119

          k = 0.6158-0.1232 0.6158 (   800 PWs)   bands (ev):

    -3.4805   0.4449   3.0714   5.6340

          k = 0.4926-0.0000 0.4926 (   804 PWs)   bands (ev):

    -4.4163   1.7494   3.3449   6.3855

          k =-0.0000 0.7389-0.0000 (   801 PWs)   bands (ev):

    -4.0400   1.5554   4.6766   4.6766

          k = 0.8621-0.1232 0.8621 (   794 PWs)   bands (ev):

    -3.1704   0.4720   3.6579   4.5656

          k = 0.7389-0.0000 0.7389 (   798 PWs)   bands (ev):

    -2.8602   0.2850   2.5203   4.9109

          k = 0.0000-0.9852 0.0000 (   790 PWs)   bands (ev):

    -2.8165  -0.0785   4.3342   4.3342

          k =-0.2463 0.4926-0.0000 (   814 PWs)   bands (ev):

    -5.2536   3.1588   4.6856   6.3282

          k = 0.6158-0.3695 0.8621 (   804 PWs)   bands (ev):

    -4.2215   1.2554   3.9666   5.6386

          k = 0.4926-0.2463 0.7389 (   812 PWs)   bands (ev):

    -3.5331   0.1760   3.8396   5.3155

          k = 0.7389-0.2463 0.9852 (   803 PWs)   bands (ev):

    -3.8211   1.3263   3.7931   4.5376

          k = 0.6158-0.1232 0.8621 (   801 PWs)   bands (ev):

    -3.0156   0.4550   2.8821   4.2826

          k = 0.4926-0.0000 0.7389 (   805 PWs)   bands (ev):

    -3.2964   0.7461   2.6575   4.7864

          k =-0.2463-0.9852 0.0000 (   794 PWs)   bands (ev):

    -2.7440   0.1130   3.6197   3.7347

          k =-0.4926-0.9852 0.0000 (   792 PWs)   bands (ev):

    -2.6667   0.3600   2.9732   3.2534

     highest occupied level (ev):     8.2967

!    total energy              =     -46.66698878 Ry
     estimated scf accuracy    <          3.2E-11 Ry

     The total energy is the sum of the following terms:
     one-electron contribution =       6.39014058 Ry
     hartree contribution      =       1.27513287 Ry
     xc contribution           =     -34.57325011 Ry
     ewald contribution        =     -19.75901212 Ry

     convergence has been achieved in   8 iterations

     Forces acting on atoms (cartesian axes, Ry/au):

     atom    1 type  1   force =    -0.00000000   -0.00000000    0.00000000
     atom    2 type  2   force =    -0.00000000   -0.00000000    0.00000000

     Total force =     0.000000     Total SCF correction =     0.000000


     Computing stress (Cartesian axis) and pressure

          total   stress  (Ry/bohr**3)                   (kbar)     P=        0.26
   0.00000179  -0.00000000   0.00000000            0.26       -0.00        0.00
   0.00000000   0.00000179   0.00000000            0.00        0.26        0.00
  -0.00000000   0.00000000   0.00000179           -0.00        0.00        0.26


     Writing all to output data dir ./pbe_1.save/
 
     init_run     :     10.36s CPU     10.78s WALL (       2 calls)
     electrons    :     56.11s CPU     62.66s WALL (       5 calls)
     update_pot   :      7.73s CPU      7.75s WALL (       3 calls)
     forces       :     10.25s CPU     10.39s WALL (       5 calls)
     stress       :     24.31s CPU     24.70s WALL (       5 calls)

     Called by init_run:
     wfcinit      :      0.56s CPU      0.67s WALL (       2 calls)
     potinit      :      1.23s CPU      1.27s WALL (       2 calls)
     hinit0       :      8.11s CPU      8.23s WALL (       2 calls)

     Called by electrons:
     c_bands      :     28.56s CPU     32.79s WALL (      46 calls)
     sum_band     :     13.60s CPU     14.70s WALL (      46 calls)
     v_of_rho     :      6.70s CPU      6.76s WALL (      50 calls)
     newd         :      8.15s CPU      9.18s WALL (      50 calls)
     mix_rho      :      0.31s CPU      0.33s WALL (      46 calls)

     Called by c_bands:
     init_us_2    :      2.85s CPU      3.13s WALL (    3016 calls)
     init_us_2:cp :      2.80s CPU      3.08s WALL (    3016 calls)
     ccgdiagg     :     22.22s CPU     24.40s WALL (    1334 calls)
     wfcrot       :      5.03s CPU      5.33s WALL (    1218 calls)

     Called by *cgdiagg:
     h_psi        :     21.54s CPU     23.42s WALL (   19419 calls)
     s_psi        :      1.64s CPU      1.82s WALL (   37620 calls)

     Called by h_psi:
     h_psi:calbec :      1.61s CPU      1.76s WALL (   19419 calls)
     vloc_psi     :     17.88s CPU     19.45s WALL (   19419 calls)
     add_vuspsi   :      1.08s CPU      1.17s WALL (   19419 calls)
     hs_1psi      :     18.95s CPU     20.75s WALL (   18201 calls)
     s_1psi       :      2.12s CPU      2.33s WALL (   18201 calls)

     General routines
     calbec       :      2.30s CPU      2.57s WALL (   39679 calls)
     fft          :      1.85s CPU      1.90s WALL (     769 calls)
     ffts         :      0.04s CPU      0.04s WALL (      96 calls)
     fftw         :     17.12s CPU     18.56s WALL (   51946 calls)
     interpolate  :      0.17s CPU      0.17s WALL (      50 calls)
 
     Parallel routines
 
     PWSCF        :   1m50.28s CPU   2m 0.05s WALL

 
   This run was terminated on:  17:57:37  20Feb2022            

=------------------------------------------------------------------------------=
   JOB DONE.
=------------------------------------------------------------------------------=
