
     Program PWSCF v.7.0 starts on  6Mar2022 at 12: 4:22 

     This program is part of the open-source Quantum ESPRESSO suite
     for quantum simulation of materials; please cite
         "P. Giannozzi et al., J. Phys.:Condens. Matter 21 395502 (2009);
         "P. Giannozzi et al., J. Phys.:Condens. Matter 29 465901 (2017);
         "P. Giannozzi et al., J. Chem. Phys. 152 154105 (2020);
          URL http://www.quantum-espresso.org", 
     in publications or presentations arising from this work. More details at
     http://www.quantum-espresso.org/quote

     Parallel version (MPI), running on     1 processors

     MPI processes distributed on     1 nodes
     85183 MiB available memory on the printing compute node when the environment starts
 
     Waiting for input...
     Reading input from standard input
Warning: card &CELL ignored
Warning: card  CELL_DYNAMICS = 'BFGS', ignored
Warning: card  PRESS=0.1D0, ignored
Warning: card / ignored

     Current dimensions of program PWSCF are:
     Max number of different atomic species (ntypx) = 10
     Max number of k-points (npk) =  40000
     Max angular momentum in pseudopotentials (lmaxx) =  4

     Subspace diagonalization in iterative solution of the eigenvalue problem:
     a serial algorithm will be used

 
     G-vector sticks info
     --------------------
     sticks:   dense  smooth     PW     G-vecs:    dense   smooth      PW
     Sum         433     433    127                 5961     5961     965
 
     Using Slab Decomposition
 


     bravais-lattice index     =            2
     lattice parameter (alat)  =      10.2000  a.u.
     unit-cell volume          =     265.3020 (a.u.)^3
     number of atoms/cell      =            2
     number of atomic types    =            1
     number of electrons       =         8.00
     number of Kohn-Sham states=            4
     kinetic-energy cutoff     =      30.0000  Ry
     charge density cutoff     =     120.0000  Ry
     scf convergence threshold =      1.0E-08
     mixing beta               =       0.7000
     number of iterations used =            8  plain     mixing
     Exchange-correlation= SLA  PZ   NOGX NOGC
                           (   1   1   0   0   0   0   0)

     celldm(1)=  10.200000  celldm(2)=   0.000000  celldm(3)=   0.000000
     celldm(4)=   0.000000  celldm(5)=   0.000000  celldm(6)=   0.000000

     crystal axes: (cart. coord. in units of alat)
               a(1) = (  -0.500000   0.000000   0.500000 )  
               a(2) = (   0.000000   0.500000   0.500000 )  
               a(3) = (  -0.500000   0.500000   0.000000 )  

     reciprocal axes: (cart. coord. in units 2 pi/alat)
               b(1) = ( -1.000000 -1.000000  1.000000 )  
               b(2) = (  1.000000  1.000000  1.000000 )  
               b(3) = ( -1.000000  1.000000 -1.000000 )  


     PseudoPot. # 1 for Si read from file:
     ./Si_LDA.UPF
     MD5 check sum: b5ade7b37ee992b02096e360e546dc2d
     Pseudo is Ultrasoft + core correction, Zval =  4.0
     Generated by new atomic code, or converted to UPF format
     Using radial grid of  899 points,  6 beta functions with: 
                l(1) =   0
                l(2) =   0
                l(3) =   1
                l(4) =   1
                l(5) =   2
                l(6) =   2
     Q(r) pseudized with  8 coefficients,  rinner =    0.900   0.900   0.900
                                                       0.900   0.900

     atomic species   valence    mass     pseudopotential
        Si             4.00    28.08550     Si( 1.00)

     48 Sym. Ops., with inversion, found (24 have fractional translation)



   Cartesian axes

     site n.     atom                  positions (alat units)
         1           Si  tau(   1) = (   0.0000000   0.0000000   0.0000000  )
         2           Si  tau(   2) = (  -0.2500000   0.2500000   0.2500000  )

     number of k points=     4
                       cart. coord. in units 2pi/alat
        k(    1) = (   0.0000000   0.0000000   0.0000000), wk =   0.0740741
        k(    2) = (  -0.3333333   0.3333333  -0.3333333), wk =   0.5925926
        k(    3) = (   0.0000000   0.6666667   0.0000000), wk =   0.4444444
        k(    4) = (   0.6666667  -0.0000000   0.6666667), wk =   0.8888889

     Dense  grid:     5961 G-vectors     FFT dimensions: (  25,  25,  25)

     Estimated max dynamical RAM per process >      23.34 MB

     Initial potential from superposition of free atoms

     starting charge       7.9988, renormalised to       8.0000
     Starting wfcs are    8 randomized atomic wfcs

     total cpu time spent up to now is        1.3 secs

     Self-consistent Calculation

     iteration #  1     ecut=    30.00 Ry     beta= 0.70
     CG style diagonalization
     ethr =  1.00E-02,  avg # of iterations =  3.0

     Threshold (ethr) on eigenvalues was too large:
     Diagonalizing with lowered threshold

     CG style diagonalization
     ethr =  9.38E-04,  avg # of iterations =  2.0

     total cpu time spent up to now is        1.6 secs

     total energy              =     -19.20829109 Ry
     estimated scf accuracy    <       0.07633708 Ry

     iteration #  2     ecut=    30.00 Ry     beta= 0.70
     CG style diagonalization
     ethr =  9.54E-04,  avg # of iterations =  3.0

     total cpu time spent up to now is        1.8 secs

     total energy              =     -19.21208055 Ry
     estimated scf accuracy    <       0.00249126 Ry

     iteration #  3     ecut=    30.00 Ry     beta= 0.70
     CG style diagonalization
     ethr =  3.11E-05,  avg # of iterations =  3.7

     total cpu time spent up to now is        2.0 secs

     total energy              =     -19.21259897 Ry
     estimated scf accuracy    <       0.00007194 Ry

     iteration #  4     ecut=    30.00 Ry     beta= 0.70
     CG style diagonalization
     ethr =  8.99E-07,  avg # of iterations =  4.4

     total cpu time spent up to now is        2.1 secs

     total energy              =     -19.21264307 Ry
     estimated scf accuracy    <       0.00000945 Ry

     iteration #  5     ecut=    30.00 Ry     beta= 0.70
     CG style diagonalization
     ethr =  1.18E-07,  avg # of iterations =  4.1

     total cpu time spent up to now is        2.3 secs

     total energy              =     -19.21264549 Ry
     estimated scf accuracy    <       0.00000010 Ry

     iteration #  6     ecut=    30.00 Ry     beta= 0.70
     CG style diagonalization
     ethr =  1.20E-09,  avg # of iterations =  5.4

     total cpu time spent up to now is        2.6 secs

     total energy              =     -19.21264566 Ry
     estimated scf accuracy    <       0.00000001 Ry

     iteration #  7     ecut=    30.00 Ry     beta= 0.70
     CG style diagonalization
     ethr =  1.54E-10,  avg # of iterations =  3.8

     total cpu time spent up to now is        2.7 secs

     End of self-consistent calculation

          k = 0.0000 0.0000 0.0000 (   725 PWs)   bands (ev):

    -5.8107   6.3097   6.3097   6.3097

          k =-0.3333 0.3333-0.3333 (   751 PWs)   bands (ev):

    -4.4045   0.8715   5.2850   5.2850

          k = 0.0000 0.6667 0.0000 (   717 PWs)   bands (ev):

    -3.8710   1.2642   3.8213   3.8213

          k = 0.6667-0.0000 0.6667 (   730 PWs)   bands (ev):

    -2.4693  -0.5331   1.7275   4.1389

     highest occupied level (ev):     6.3097

!    total energy              =     -19.21264567 Ry
     estimated scf accuracy    <          1.9E-10 Ry

     The total energy is the sum of the following terms:
     one-electron contribution =       5.19867704 Ry
     hartree contribution      =       1.15629736 Ry
     xc contribution           =      -8.66786147 Ry
     ewald contribution        =     -16.89975860 Ry

     convergence has been achieved in   7 iterations

     Forces acting on atoms (cartesian axes, Ry/au):

     atom    1 type  1   force =     0.00000000    0.00000000    0.00000000
     atom    2 type  1   force =    -0.00000000   -0.00000000   -0.00000000

     Total force =     0.000000     Total SCF correction =     0.000000


     Computing stress (Cartesian axis) and pressure

          total   stress  (Ry/bohr**3)                   (kbar)     P=       21.59
   0.00014679  -0.00000000   0.00000000           21.59       -0.00        0.00
  -0.00000000   0.00014679  -0.00000000           -0.00       21.59       -0.00
   0.00000000  -0.00000000   0.00014679            0.00       -0.00       21.59


     Writing all to output data dir ./Si.save/
 
     init_run     :      0.69s CPU      0.73s WALL (       1 calls)
     electrons    :      1.23s CPU      1.42s WALL (       1 calls)
     forces       :      0.05s CPU      0.06s WALL (       1 calls)
     stress       :      0.37s CPU      0.37s WALL (       1 calls)

     Called by init_run:
     wfcinit      :      0.04s CPU      0.04s WALL (       1 calls)
     potinit      :      0.01s CPU      0.01s WALL (       1 calls)
     hinit0       :      0.61s CPU      0.62s WALL (       1 calls)

     Called by electrons:
     c_bands      :      0.62s CPU      0.72s WALL (       8 calls)
     sum_band     :      0.37s CPU      0.41s WALL (       8 calls)
     v_of_rho     :      0.03s CPU      0.03s WALL (       8 calls)
     newd         :      0.23s CPU      0.26s WALL (       8 calls)
     mix_rho      :      0.01s CPU      0.01s WALL (       8 calls)

     Called by c_bands:
     init_us_2    :      0.05s CPU      0.06s WALL (      76 calls)
     init_us_2:cp :      0.05s CPU      0.06s WALL (      76 calls)
     ccgdiagg     :      0.48s CPU      0.52s WALL (      32 calls)
     wfcrot       :      0.12s CPU      0.13s WALL (      28 calls)

     Called by *cgdiagg:
     h_psi        :      0.47s CPU      0.50s WALL (     400 calls)
     s_psi        :      0.05s CPU      0.05s WALL (     772 calls)

     Called by h_psi:
     h_psi:calbec :      0.04s CPU      0.04s WALL (     400 calls)
     vloc_psi     :      0.37s CPU      0.41s WALL (     400 calls)
     add_vuspsi   :      0.03s CPU      0.03s WALL (     400 calls)
     hs_1psi      :      0.40s CPU      0.43s WALL (     372 calls)
     s_1psi       :      0.06s CPU      0.06s WALL (     372 calls)

     General routines
     calbec       :      0.07s CPU      0.07s WALL (     824 calls)
     fft          :      0.02s CPU      0.02s WALL (      41 calls)
     ffts         :      0.00s CPU      0.00s WALL (       8 calls)
     fftw         :      0.36s CPU      0.39s WALL (    1128 calls)
 
     Parallel routines
 
     PWSCF        :      2.84s CPU      3.32s WALL

 
   This run was terminated on:  12: 4:26   6Mar2022            

=------------------------------------------------------------------------------=
   JOB DONE.
=------------------------------------------------------------------------------=
