
     Program PWSCF v.7.0 starts on  6Mar2022 at 12: 4:27 

     This program is part of the open-source Quantum ESPRESSO suite
     for quantum simulation of materials; please cite
         "P. Giannozzi et al., J. Phys.:Condens. Matter 21 395502 (2009);
         "P. Giannozzi et al., J. Phys.:Condens. Matter 29 465901 (2017);
         "P. Giannozzi et al., J. Chem. Phys. 152 154105 (2020);
          URL http://www.quantum-espresso.org", 
     in publications or presentations arising from this work. More details at
     http://www.quantum-espresso.org/quote

     Parallel version (MPI), running on     1 processors

     MPI processes distributed on     1 nodes
     85185 MiB available memory on the printing compute node when the environment starts
 
     Waiting for input...
     Reading input from standard input
Warning: card &CELL ignored
Warning: card  CELL_DYNAMICS = 'BFGS', ignored
Warning: card  PRESS=0.1D0, ignored
Warning: card / ignored

     Current dimensions of program PWSCF are:
     Max number of different atomic species (ntypx) = 10
     Max number of k-points (npk) =  40000
     Max angular momentum in pseudopotentials (lmaxx) =  4

     Subspace diagonalization in iterative solution of the eigenvalue problem:
     a serial algorithm will be used

 
     G-vector sticks info
     --------------------
     sticks:   dense  smooth     PW     G-vecs:    dense   smooth      PW
     Sum         583     583    163                 9185     9185    1459
 
     Using Slab Decomposition
 


     bravais-lattice index     =            2
     lattice parameter (alat)  =      10.2000  a.u.
     unit-cell volume          =     265.3020 (a.u.)^3
     number of atoms/cell      =            2
     number of atomic types    =            1
     number of electrons       =         8.00
     number of Kohn-Sham states=            4
     kinetic-energy cutoff     =      40.0000  Ry
     charge density cutoff     =     160.0000  Ry
     scf convergence threshold =      1.0E-08
     mixing beta               =       0.7000
     number of iterations used =            8  plain     mixing
     Exchange-correlation= SLA  PZ   NOGX NOGC
                           (   1   1   0   0   0   0   0)

     celldm(1)=  10.200000  celldm(2)=   0.000000  celldm(3)=   0.000000
     celldm(4)=   0.000000  celldm(5)=   0.000000  celldm(6)=   0.000000

     crystal axes: (cart. coord. in units of alat)
               a(1) = (  -0.500000   0.000000   0.500000 )  
               a(2) = (   0.000000   0.500000   0.500000 )  
               a(3) = (  -0.500000   0.500000   0.000000 )  

     reciprocal axes: (cart. coord. in units 2 pi/alat)
               b(1) = ( -1.000000 -1.000000  1.000000 )  
               b(2) = (  1.000000  1.000000  1.000000 )  
               b(3) = ( -1.000000  1.000000 -1.000000 )  


     PseudoPot. # 1 for Si read from file:
     ./Si_LDA.UPF
     MD5 check sum: b5ade7b37ee992b02096e360e546dc2d
     Pseudo is Ultrasoft + core correction, Zval =  4.0
     Generated by new atomic code, or converted to UPF format
     Using radial grid of  899 points,  6 beta functions with: 
                l(1) =   0
                l(2) =   0
                l(3) =   1
                l(4) =   1
                l(5) =   2
                l(6) =   2
     Q(r) pseudized with  8 coefficients,  rinner =    0.900   0.900   0.900
                                                       0.900   0.900

     atomic species   valence    mass     pseudopotential
        Si             4.00    28.08550     Si( 1.00)

     48 Sym. Ops., with inversion, found (24 have fractional translation)



   Cartesian axes

     site n.     atom                  positions (alat units)
         1           Si  tau(   1) = (   0.0000000   0.0000000   0.0000000  )
         2           Si  tau(   2) = (  -0.2500000   0.2500000   0.2500000  )

     number of k points=     4
                       cart. coord. in units 2pi/alat
        k(    1) = (   0.0000000   0.0000000   0.0000000), wk =   0.0740741
        k(    2) = (  -0.3333333   0.3333333  -0.3333333), wk =   0.5925926
        k(    3) = (   0.0000000   0.6666667   0.0000000), wk =   0.4444444
        k(    4) = (   0.6666667  -0.0000000   0.6666667), wk =   0.8888889

     Dense  grid:     9185 G-vectors     FFT dimensions: (  30,  30,  30)

     Estimated max dynamical RAM per process >      35.83 MB

     Initial potential from superposition of free atoms

     starting charge       7.9988, renormalised to       8.0000
     Starting wfcs are    8 randomized atomic wfcs

     total cpu time spent up to now is        1.5 secs

     Self-consistent Calculation

     iteration #  1     ecut=    40.00 Ry     beta= 0.70
     CG style diagonalization
     ethr =  1.00E-02,  avg # of iterations =  3.0

     Threshold (ethr) on eigenvalues was too large:
     Diagonalizing with lowered threshold

     CG style diagonalization
     ethr =  9.39E-04,  avg # of iterations =  2.0

     total cpu time spent up to now is        1.9 secs

     total energy              =     -19.20840495 Ry
     estimated scf accuracy    <       0.07628514 Ry

     iteration #  2     ecut=    40.00 Ry     beta= 0.70
     CG style diagonalization
     ethr =  9.54E-04,  avg # of iterations =  3.0

     total cpu time spent up to now is        2.1 secs

     total energy              =     -19.21217376 Ry
     estimated scf accuracy    <       0.00249658 Ry

     iteration #  3     ecut=    40.00 Ry     beta= 0.70
     CG style diagonalization
     ethr =  3.12E-05,  avg # of iterations =  3.7

     total cpu time spent up to now is        2.4 secs

     total energy              =     -19.21268884 Ry
     estimated scf accuracy    <       0.00007146 Ry

     iteration #  4     ecut=    40.00 Ry     beta= 0.70
     CG style diagonalization
     ethr =  8.93E-07,  avg # of iterations =  4.4

     total cpu time spent up to now is        2.7 secs

     total energy              =     -19.21273409 Ry
     estimated scf accuracy    <       0.00000947 Ry

     iteration #  5     ecut=    40.00 Ry     beta= 0.70
     CG style diagonalization
     ethr =  1.18E-07,  avg # of iterations =  4.1

     total cpu time spent up to now is        3.0 secs

     total energy              =     -19.21273670 Ry
     estimated scf accuracy    <       0.00000010 Ry

     iteration #  6     ecut=    40.00 Ry     beta= 0.70
     CG style diagonalization
     ethr =  1.23E-09,  avg # of iterations =  5.4

     total cpu time spent up to now is        3.4 secs

     total energy              =     -19.21273687 Ry
     estimated scf accuracy    <       0.00000001 Ry

     iteration #  7     ecut=    40.00 Ry     beta= 0.70
     CG style diagonalization
     ethr =  1.63E-10,  avg # of iterations =  3.7

     total cpu time spent up to now is        3.7 secs

     End of self-consistent calculation

          k = 0.0000 0.0000 0.0000 (  1139 PWs)   bands (ev):

    -5.8110   6.3095   6.3095   6.3095

          k =-0.3333 0.3333-0.3333 (  1149 PWs)   bands (ev):

    -4.4048   0.8713   5.2847   5.2847

          k = 0.0000 0.6667 0.0000 (  1118 PWs)   bands (ev):

    -3.8713   1.2638   3.8210   3.8210

          k = 0.6667-0.0000 0.6667 (  1141 PWs)   bands (ev):

    -2.4696  -0.5334   1.7273   4.1386

     highest occupied level (ev):     6.3095

!    total energy              =     -19.21273687 Ry
     estimated scf accuracy    <          3.6E-11 Ry

     The total energy is the sum of the following terms:
     one-electron contribution =       5.19838843 Ry
     hartree contribution      =       1.15630988 Ry
     xc contribution           =      -8.66767657 Ry
     ewald contribution        =     -16.89975860 Ry

     convergence has been achieved in   7 iterations

     Forces acting on atoms (cartesian axes, Ry/au):

     atom    1 type  1   force =     0.00000000   -0.00000000    0.00000000
     atom    2 type  1   force =    -0.00000000    0.00000000   -0.00000000

     Total force =     0.000000     Total SCF correction =     0.000000


     Computing stress (Cartesian axis) and pressure

          total   stress  (Ry/bohr**3)                   (kbar)     P=       21.54
   0.00014641   0.00000000   0.00000000           21.54        0.00        0.00
  -0.00000000   0.00014641  -0.00000000           -0.00       21.54       -0.00
   0.00000000   0.00000000   0.00014641            0.00        0.00       21.54


     Writing all to output data dir ./Si.save/
 
     init_run     :      0.83s CPU      0.86s WALL (       1 calls)
     electrons    :      1.98s CPU      2.21s WALL (       1 calls)
     forces       :      0.08s CPU      0.09s WALL (       1 calls)
     stress       :      0.57s CPU      0.57s WALL (       1 calls)

     Called by init_run:
     wfcinit      :      0.07s CPU      0.07s WALL (       1 calls)
     potinit      :      0.01s CPU      0.01s WALL (       1 calls)
     hinit0       :      0.69s CPU      0.70s WALL (       1 calls)

     Called by electrons:
     c_bands      :      1.04s CPU      1.15s WALL (       8 calls)
     sum_band     :      0.57s CPU      0.63s WALL (       8 calls)
     v_of_rho     :      0.05s CPU      0.06s WALL (       8 calls)
     newd         :      0.35s CPU      0.39s WALL (       8 calls)
     mix_rho      :      0.01s CPU      0.02s WALL (       8 calls)

     Called by c_bands:
     init_us_2    :      0.09s CPU      0.10s WALL (      76 calls)
     init_us_2:cp :      0.09s CPU      0.09s WALL (      76 calls)
     ccgdiagg     :      0.82s CPU      0.87s WALL (      32 calls)
     wfcrot       :      0.22s CPU      0.23s WALL (      28 calls)

     Called by *cgdiagg:
     h_psi        :      0.84s CPU      0.88s WALL (     400 calls)
     s_psi        :      0.08s CPU      0.09s WALL (     772 calls)

     Called by h_psi:
     h_psi:calbec :      0.06s CPU      0.07s WALL (     400 calls)
     vloc_psi     :      0.70s CPU      0.74s WALL (     400 calls)
     add_vuspsi   :      0.05s CPU      0.05s WALL (     400 calls)
     hs_1psi      :      0.70s CPU      0.73s WALL (     372 calls)
     s_1psi       :      0.09s CPU      0.10s WALL (     372 calls)

     General routines
     calbec       :      0.10s CPU      0.11s WALL (     824 calls)
     fft          :      0.03s CPU      0.03s WALL (      41 calls)
     ffts         :      0.00s CPU      0.01s WALL (       8 calls)
     fftw         :      0.69s CPU      0.73s WALL (    1128 calls)
 
     Parallel routines
 
     PWSCF        :      3.97s CPU      4.48s WALL

 
   This run was terminated on:  12: 4:31   6Mar2022            

=------------------------------------------------------------------------------=
   JOB DONE.
=------------------------------------------------------------------------------=
