
     Program PWSCF v.7.0 starts on  6Mar2022 at 12: 4:40 

     This program is part of the open-source Quantum ESPRESSO suite
     for quantum simulation of materials; please cite
         "P. Giannozzi et al., J. Phys.:Condens. Matter 21 395502 (2009);
         "P. Giannozzi et al., J. Phys.:Condens. Matter 29 465901 (2017);
         "P. Giannozzi et al., J. Chem. Phys. 152 154105 (2020);
          URL http://www.quantum-espresso.org", 
     in publications or presentations arising from this work. More details at
     http://www.quantum-espresso.org/quote

     Parallel version (MPI), running on     1 processors

     MPI processes distributed on     1 nodes
     85183 MiB available memory on the printing compute node when the environment starts
 
     Waiting for input...
     Reading input from standard input
Warning: card &CELL ignored
Warning: card  CELL_DYNAMICS = 'BFGS', ignored
Warning: card  PRESS=0.1D0, ignored
Warning: card / ignored

     Current dimensions of program PWSCF are:
     Max number of different atomic species (ntypx) = 10
     Max number of k-points (npk) =  40000
     Max angular momentum in pseudopotentials (lmaxx) =  4

     Subspace diagonalization in iterative solution of the eigenvalue problem:
     a serial algorithm will be used

 
     G-vector sticks info
     --------------------
     sticks:   dense  smooth     PW     G-vecs:    dense   smooth      PW
     Sum         859     859    253                16625    16625    2637
 
     Using Slab Decomposition
 


     bravais-lattice index     =            2
     lattice parameter (alat)  =      10.2000  a.u.
     unit-cell volume          =     265.3020 (a.u.)^3
     number of atoms/cell      =            2
     number of atomic types    =            1
     number of electrons       =         8.00
     number of Kohn-Sham states=            4
     kinetic-energy cutoff     =      60.0000  Ry
     charge density cutoff     =     240.0000  Ry
     scf convergence threshold =      1.0E-08
     mixing beta               =       0.7000
     number of iterations used =            8  plain     mixing
     Exchange-correlation= SLA  PZ   NOGX NOGC
                           (   1   1   0   0   0   0   0)

     celldm(1)=  10.200000  celldm(2)=   0.000000  celldm(3)=   0.000000
     celldm(4)=   0.000000  celldm(5)=   0.000000  celldm(6)=   0.000000

     crystal axes: (cart. coord. in units of alat)
               a(1) = (  -0.500000   0.000000   0.500000 )  
               a(2) = (   0.000000   0.500000   0.500000 )  
               a(3) = (  -0.500000   0.500000   0.000000 )  

     reciprocal axes: (cart. coord. in units 2 pi/alat)
               b(1) = ( -1.000000 -1.000000  1.000000 )  
               b(2) = (  1.000000  1.000000  1.000000 )  
               b(3) = ( -1.000000  1.000000 -1.000000 )  


     PseudoPot. # 1 for Si read from file:
     ./Si_LDA.UPF
     MD5 check sum: b5ade7b37ee992b02096e360e546dc2d
     Pseudo is Ultrasoft + core correction, Zval =  4.0
     Generated by new atomic code, or converted to UPF format
     Using radial grid of  899 points,  6 beta functions with: 
                l(1) =   0
                l(2) =   0
                l(3) =   1
                l(4) =   1
                l(5) =   2
                l(6) =   2
     Q(r) pseudized with  8 coefficients,  rinner =    0.900   0.900   0.900
                                                       0.900   0.900

     atomic species   valence    mass     pseudopotential
        Si             4.00    28.08550     Si( 1.00)

     48 Sym. Ops., with inversion, found (24 have fractional translation)



   Cartesian axes

     site n.     atom                  positions (alat units)
         1           Si  tau(   1) = (   0.0000000   0.0000000   0.0000000  )
         2           Si  tau(   2) = (  -0.2500000   0.2500000   0.2500000  )

     number of k points=     4
                       cart. coord. in units 2pi/alat
        k(    1) = (   0.0000000   0.0000000   0.0000000), wk =   0.0740741
        k(    2) = (  -0.3333333   0.3333333  -0.3333333), wk =   0.5925926
        k(    3) = (   0.0000000   0.6666667   0.0000000), wk =   0.4444444
        k(    4) = (   0.6666667  -0.0000000   0.6666667), wk =   0.8888889

     Dense  grid:    16625 G-vectors     FFT dimensions: (  36,  36,  36)

     Estimated max dynamical RAM per process >      64.13 MB

     Initial potential from superposition of free atoms

     starting charge       7.9988, renormalised to       8.0000
     Starting wfcs are    8 randomized atomic wfcs

     total cpu time spent up to now is        1.7 secs

     Self-consistent Calculation

     iteration #  1     ecut=    60.00 Ry     beta= 0.70
     CG style diagonalization
     ethr =  1.00E-02,  avg # of iterations =  3.0

     Threshold (ethr) on eigenvalues was too large:
     Diagonalizing with lowered threshold

     CG style diagonalization
     ethr =  9.43E-04,  avg # of iterations =  2.0

     total cpu time spent up to now is        2.5 secs

     total energy              =     -19.20848224 Ry
     estimated scf accuracy    <       0.07621740 Ry

     iteration #  2     ecut=    60.00 Ry     beta= 0.70
     CG style diagonalization
     ethr =  9.53E-04,  avg # of iterations =  3.0

     total cpu time spent up to now is        2.9 secs

     total energy              =     -19.21221900 Ry
     estimated scf accuracy    <       0.00250620 Ry

     iteration #  3     ecut=    60.00 Ry     beta= 0.70
     CG style diagonalization
     ethr =  3.13E-05,  avg # of iterations =  3.7

     total cpu time spent up to now is        3.4 secs

     total energy              =     -19.21273167 Ry
     estimated scf accuracy    <       0.00007078 Ry

     iteration #  4     ecut=    60.00 Ry     beta= 0.70
     CG style diagonalization
     ethr =  8.85E-07,  avg # of iterations =  4.4

     total cpu time spent up to now is        3.9 secs

     total energy              =     -19.21277586 Ry
     estimated scf accuracy    <       0.00000918 Ry

     iteration #  5     ecut=    60.00 Ry     beta= 0.70
     CG style diagonalization
     ethr =  1.15E-07,  avg # of iterations =  4.1

     total cpu time spent up to now is        4.4 secs

     total energy              =     -19.21277828 Ry
     estimated scf accuracy    <       0.00000010 Ry

     iteration #  6     ecut=    60.00 Ry     beta= 0.70
     CG style diagonalization
     ethr =  1.20E-09,  avg # of iterations =  5.4

     total cpu time spent up to now is        5.0 secs

     total energy              =     -19.21277846 Ry
     estimated scf accuracy    <       0.00000002 Ry

     iteration #  7     ecut=    60.00 Ry     beta= 0.70
     CG style diagonalization
     ethr =  1.98E-10,  avg # of iterations =  3.6

     total cpu time spent up to now is        5.4 secs

     End of self-consistent calculation

          k = 0.0000 0.0000 0.0000 (  2085 PWs)   bands (ev):

    -5.8110   6.3094   6.3094   6.3094

          k =-0.3333 0.3333-0.3333 (  2090 PWs)   bands (ev):

    -4.4049   0.8712   5.2846   5.2846

          k = 0.0000 0.6667 0.0000 (  2080 PWs)   bands (ev):

    -3.8714   1.2638   3.8209   3.8209

          k = 0.6667-0.0000 0.6667 (  2079 PWs)   bands (ev):

    -2.4697  -0.5334   1.7272   4.1385

     highest occupied level (ev):     6.3094

!    total energy              =     -19.21277846 Ry
     estimated scf accuracy    <          2.4E-10 Ry

     The total energy is the sum of the following terms:
     one-electron contribution =       5.19833280 Ry
     hartree contribution      =       1.15631790 Ry
     xc contribution           =      -8.66767059 Ry
     ewald contribution        =     -16.89975857 Ry

     convergence has been achieved in   7 iterations

     Forces acting on atoms (cartesian axes, Ry/au):

     atom    1 type  1   force =     0.00000000    0.00000000    0.00000000
     atom    2 type  1   force =     0.00000000    0.00000000    0.00000000

     Total force =     0.000000     Total SCF correction =     0.000000


     Computing stress (Cartesian axis) and pressure

          total   stress  (Ry/bohr**3)                   (kbar)     P=       21.55
   0.00014649  -0.00000000  -0.00000000           21.55       -0.00       -0.00
  -0.00000000   0.00014649   0.00000000           -0.00       21.55        0.00
  -0.00000000   0.00000000   0.00014649           -0.00        0.00       21.55


     Writing all to output data dir ./Si.save/
 
     init_run     :      1.07s CPU      1.12s WALL (       1 calls)
     electrons    :      3.38s CPU      3.74s WALL (       1 calls)
     forces       :      0.14s CPU      0.16s WALL (       1 calls)
     stress       :      1.07s CPU      1.10s WALL (       1 calls)

     Called by init_run:
     wfcinit      :      0.11s CPU      0.12s WALL (       1 calls)
     potinit      :      0.01s CPU      0.02s WALL (       1 calls)
     hinit0       :      0.84s CPU      0.85s WALL (       1 calls)

     Called by electrons:
     c_bands      :      1.70s CPU      1.85s WALL (       8 calls)
     sum_band     :      1.02s CPU      1.12s WALL (       8 calls)
     v_of_rho     :      0.09s CPU      0.09s WALL (       8 calls)
     newd         :      0.61s CPU      0.70s WALL (       8 calls)
     mix_rho      :      0.03s CPU      0.03s WALL (       8 calls)

     Called by c_bands:
     init_us_2    :      0.16s CPU      0.17s WALL (      76 calls)
     init_us_2:cp :      0.16s CPU      0.17s WALL (      76 calls)
     ccgdiagg     :      1.34s CPU      1.42s WALL (      32 calls)
     wfcrot       :      0.36s CPU      0.38s WALL (      28 calls)

     Called by *cgdiagg:
     h_psi        :      1.34s CPU      1.40s WALL (     399 calls)
     s_psi        :      0.16s CPU      0.19s WALL (     770 calls)

     Called by h_psi:
     h_psi:calbec :      0.10s CPU      0.11s WALL (     399 calls)
     vloc_psi     :      1.12s CPU      1.16s WALL (     399 calls)
     add_vuspsi   :      0.09s CPU      0.11s WALL (     399 calls)
     hs_1psi      :      1.12s CPU      1.17s WALL (     371 calls)
     s_1psi       :      0.17s CPU      0.19s WALL (     371 calls)

     General routines
     calbec       :      0.18s CPU      0.20s WALL (     822 calls)
     fft          :      0.04s CPU      0.04s WALL (      41 calls)
     ffts         :      0.01s CPU      0.01s WALL (       8 calls)
     fftw         :      1.06s CPU      1.10s WALL (    1126 calls)
 
     Parallel routines
 
     PWSCF        :      6.16s CPU      6.87s WALL

 
   This run was terminated on:  12: 4:47   6Mar2022            

=------------------------------------------------------------------------------=
   JOB DONE.
=------------------------------------------------------------------------------=
