
     Program PWSCF v.7.0 starts on  8Mar2022 at 15:22:20 

     This program is part of the open-source Quantum ESPRESSO suite
     for quantum simulation of materials; please cite
         "P. Giannozzi et al., J. Phys.:Condens. Matter 21 395502 (2009);
         "P. Giannozzi et al., J. Phys.:Condens. Matter 29 465901 (2017);
         "P. Giannozzi et al., J. Chem. Phys. 152 154105 (2020);
          URL http://www.quantum-espresso.org", 
     in publications or presentations arising from this work. More details at
     http://www.quantum-espresso.org/quote

     Parallel version (MPI), running on     1 processors

     MPI processes distributed on     1 nodes
     88997 MiB available memory on the printing compute node when the environment starts
 
     Waiting for input...
     Reading input from standard input
Warning: card &CELL ignored
Warning: card  CELL_DYNAMICS = 'BFGS', ignored
Warning: card  PRESS=0.1D0, ignored
Warning: card / ignored

     Current dimensions of program PWSCF are:
     Max number of different atomic species (ntypx) = 10
     Max number of k-points (npk) =  40000
     Max angular momentum in pseudopotentials (lmaxx) =  4
     Message from routine setup:
     using ibrav=0 with symmetry is DISCOURAGED, use correct ibrav instead

     Subspace diagonalization in iterative solution of the eigenvalue problem:
     a serial algorithm will be used

 
     G-vector sticks info
     --------------------
     sticks:   dense  smooth     PW     G-vecs:    dense   smooth      PW
     Sum        1069     433    139                22995     5817    1067
 
     Using Slab Decomposition
 


     bravais-lattice index     =            0
     lattice parameter (alat)  =      10.1941  a.u.
     unit-cell volume          =     261.6765 (a.u.)^3
     number of atoms/cell      =            2
     number of atomic types    =            1
     number of electrons       =         8.00
     number of Kohn-Sham states=            8
     kinetic-energy cutoff     =      30.0000  Ry
     charge density cutoff     =     300.0000  Ry
     scf convergence threshold =      1.0E-08
     mixing beta               =       0.7000
     number of iterations used =            8  plain     mixing
     Exchange-correlation= SLA  PZ   NOGX NOGC
                           (   1   1   0   0   0   0   0)

     celldm(1)=  10.194100  celldm(2)=   0.000000  celldm(3)=   0.000000
     celldm(4)=   0.000000  celldm(5)=   0.000000  celldm(6)=   0.000000

     crystal axes: (cart. coord. in units of alat)
               a(1) = (  -0.498000   0.000000   0.498000 )  
               a(2) = (   0.000000   0.498000   0.498000 )  
               a(3) = (  -0.498000   0.498000   0.000000 )  

     reciprocal axes: (cart. coord. in units 2 pi/alat)
               b(1) = ( -1.004016 -1.004016  1.004016 )  
               b(2) = (  1.004016  1.004016  1.004016 )  
               b(3) = ( -1.004016  1.004016 -1.004016 )  


     PseudoPot. # 1 for Si read from file:
     ./Si_LDA.UPF
     MD5 check sum: b5ade7b37ee992b02096e360e546dc2d
     Pseudo is Ultrasoft + core correction, Zval =  4.0
     Generated by new atomic code, or converted to UPF format
     Using radial grid of  899 points,  6 beta functions with: 
                l(1) =   0
                l(2) =   0
                l(3) =   1
                l(4) =   1
                l(5) =   2
                l(6) =   2
     Q(r) pseudized with  8 coefficients,  rinner =    0.900   0.900   0.900
                                                       0.900   0.900

     atomic species   valence    mass     pseudopotential
        Si             4.00    28.08550     Si( 1.00)

     48 Sym. Ops., with inversion, found (24 have fractional translation)



   Cartesian axes

     site n.     atom                  positions (alat units)
         1           Si  tau(   1) = (   0.0000000   0.0000000   0.0000000  )
         2           Si  tau(   2) = (  -0.2490000   0.2490000   0.2490000  )

     number of k points=    29
                       cart. coord. in units 2pi/alat
        k(    1) = (   0.0000000   0.0000000   0.0000000), wk =   0.0039062
        k(    2) = (  -0.1255020   0.1255020  -0.1255020), wk =   0.0312500
        k(    3) = (  -0.2510040   0.2510040  -0.2510040), wk =   0.0312500
        k(    4) = (  -0.3765060   0.3765060  -0.3765060), wk =   0.0312500
        k(    5) = (   0.5020080  -0.5020080   0.5020080), wk =   0.0156250
        k(    6) = (   0.0000000   0.2510040   0.0000000), wk =   0.0234375
        k(    7) = (  -0.1255020   0.3765060  -0.1255020), wk =   0.0937500
        k(    8) = (  -0.2510040   0.5020080  -0.2510040), wk =   0.0937500
        k(    9) = (   0.6275100  -0.3765060   0.6275100), wk =   0.0937500
        k(   10) = (   0.5020080  -0.2510040   0.5020080), wk =   0.0937500
        k(   11) = (   0.3765060  -0.1255020   0.3765060), wk =   0.0937500
        k(   12) = (   0.2510040   0.0000000   0.2510040), wk =   0.0468750
        k(   13) = (   0.0000000   0.5020080   0.0000000), wk =   0.0234375
        k(   14) = (  -0.1255020   0.6275100  -0.1255020), wk =   0.0937500
        k(   15) = (   0.7530120  -0.2510040   0.7530120), wk =   0.0937500
        k(   16) = (   0.6275100  -0.1255020   0.6275100), wk =   0.0937500
        k(   17) = (   0.5020080   0.0000000   0.5020080), wk =   0.0468750
        k(   18) = (   0.0000000   0.7530120   0.0000000), wk =   0.0234375
        k(   19) = (   0.8785141  -0.1255020   0.8785141), wk =   0.0937500
        k(   20) = (   0.7530120   0.0000000   0.7530120), wk =   0.0468750
        k(   21) = (   0.0000000  -1.0040161   0.0000000), wk =   0.0117188
        k(   22) = (  -0.2510040   0.5020080   0.0000000), wk =   0.0937500
        k(   23) = (   0.6275100  -0.3765060   0.8785141), wk =   0.1875000
        k(   24) = (   0.5020080  -0.2510040   0.7530120), wk =   0.0937500
        k(   25) = (   0.7530120  -0.2510040   1.0040161), wk =   0.0937500
        k(   26) = (   0.6275100  -0.1255020   0.8785141), wk =   0.1875000
        k(   27) = (   0.5020080   0.0000000   0.7530120), wk =   0.0937500
        k(   28) = (  -0.2510040  -1.0040161   0.0000000), wk =   0.0468750
        k(   29) = (  -0.5020080  -1.0040161   0.0000000), wk =   0.0234375

     Dense  grid:    22995 G-vectors     FFT dimensions: (  40,  40,  40)

     Smooth grid:     5817 G-vectors     FFT dimensions: (  25,  25,  25)

     Estimated max dynamical RAM per process >      88.80 MB

     Initial potential from superposition of free atoms

     starting charge       7.9988, renormalised to       8.0000
     Starting wfcs are    8 randomized atomic wfcs

     total cpu time spent up to now is        1.9 secs

     Self-consistent Calculation

     iteration #  1     ecut=    30.00 Ry     beta= 0.70
     CG style diagonalization
     ethr =  1.00E-02,  avg # of iterations =  3.6

     Threshold (ethr) on eigenvalues was too large:
     Diagonalizing with lowered threshold

     CG style diagonalization
     ethr =  7.51E-04,  avg # of iterations =  2.0

     total cpu time spent up to now is        4.6 secs

     total energy              =     -19.25620089 Ry
     estimated scf accuracy    <       0.06097011 Ry

     iteration #  2     ecut=    30.00 Ry     beta= 0.70
     CG style diagonalization
     ethr =  7.62E-04,  avg # of iterations =  3.0

     total cpu time spent up to now is        5.9 secs

     total energy              =     -19.25977532 Ry
     estimated scf accuracy    <       0.00170592 Ry

     iteration #  3     ecut=    30.00 Ry     beta= 0.70
     CG style diagonalization
     ethr =  2.13E-05,  avg # of iterations =  3.7

     total cpu time spent up to now is        7.5 secs

     total energy              =     -19.25998762 Ry
     estimated scf accuracy    <       0.00003965 Ry

     iteration #  4     ecut=    30.00 Ry     beta= 0.70
     CG style diagonalization
     ethr =  4.96E-07,  avg # of iterations =  4.3

     total cpu time spent up to now is        9.2 secs

     total energy              =     -19.26002184 Ry
     estimated scf accuracy    <       0.00000021 Ry

     iteration #  5     ecut=    30.00 Ry     beta= 0.70
     CG style diagonalization
     ethr =  2.61E-09,  avg # of iterations =  4.1

     total cpu time spent up to now is       10.9 secs

     End of self-consistent calculation

          k = 0.0000 0.0000 0.0000 (   725 PWs)   bands (ev):

    -5.8383   6.3480   6.3480   6.3480   8.8888   8.8888   8.8888   9.9001

          k =-0.1255 0.1255-0.1255 (   724 PWs)   bands (ev):

    -5.6285   4.7216   6.0488   6.0488   8.8575   9.3262   9.3262  11.2024

          k =-0.2510 0.2510-0.2510 (   733 PWs)   bands (ev):

    -5.0155   2.3406   5.5674   5.5674   8.3815   9.8417   9.8417  13.3639

          k =-0.3765 0.3765-0.3765 (   739 PWs)   bands (ev):

    -4.0904   0.2649   5.2360   5.2360   8.0142   9.7575   9.7575  14.0985

          k = 0.5020-0.5020 0.5020 (   718 PWs)   bands (ev):

    -3.4195  -0.7990   5.1231   5.1231   7.8855   9.6343   9.6343  13.9126

          k = 0.0000 0.2510 0.0000 (   717 PWs)   bands (ev):

    -5.5579   5.0247   5.5087   5.5087   8.2972  10.0651  10.0651  10.8707

          k =-0.1255 0.3765-0.1255 (   722 PWs)   bands (ev):

    -5.0759   3.0793   4.9836   5.0709   8.4353  10.1092  10.8382  11.0392

          k =-0.2510 0.5020-0.2510 (   724 PWs)   bands (ev):

    -4.2348   0.9594   4.4635   4.7125   8.5410   9.9996  10.8076  11.7813

          k = 0.6275-0.3765 0.6275 (   726 PWs)   bands (ev):

    -3.3348  -0.5582   4.0040   4.7424   8.4987   9.8369  10.4199  13.7188

          k = 0.5020-0.2510 0.5020 (   730 PWs)   bands (ev):

    -3.5922  -0.1714   3.8117   5.0509   8.6915   9.9283  10.1836  14.2552

          k = 0.3765-0.1255 0.3765 (   733 PWs)   bands (ev):

    -4.5512   1.6389   3.9567   5.5585   9.0790  10.0108  10.1719  12.6641

          k = 0.2510 0.0000 0.2510 (   737 PWs)   bands (ev):

    -5.2828   3.6343   4.6479   6.0532   9.4304   9.4601   9.6856  11.9631

          k = 0.0000 0.5020 0.0000 (   729 PWs)   bands (ev):

    -4.7264   2.8201   4.3949   4.3949   7.3649   9.3815  12.1567  12.1567

          k =-0.1255 0.6275-0.1255 (   724 PWs)   bands (ev):

    -3.9954   1.3593   3.5798   4.0699   7.5855   9.1401  12.4079  12.6596

          k = 0.7530-0.2510 0.7530 (   724 PWs)   bands (ev):

    -3.0348  -0.1353   2.6850   4.0758   7.7451  10.7380  12.1591  12.2854

          k = 0.6275-0.1255 0.6275 (   722 PWs)   bands (ev):

    -2.8175  -0.4085   2.2065   4.4060   8.0865  11.8107  11.8397  13.3423

          k = 0.5020 0.0000 0.5020 (   716 PWs)   bands (ev):

    -3.7320   0.7962   2.4445   4.9842   8.7348  11.1567  11.4674  12.5384

          k = 0.0000 0.7530 0.0000 (   725 PWs)   bands (ev):

    -3.3773   0.5468   3.6605   3.6605   6.8167   7.7343  14.4701  14.4701

          k = 0.8785-0.1255 0.8785 (   730 PWs)   bands (ev):

    -2.4520  -0.5635   2.7790   3.5833   7.0917   8.2031  14.6855  14.7913

          k = 0.7530 0.0000 0.7530 (   724 PWs)   bands (ev):

    -1.9851  -0.9788   1.8644   3.8494   7.4114  10.4210  13.8883  14.6885

          k = 0.0000-1.0040 0.0000 (   740 PWs)   bands (ev):

    -1.5787  -1.5787   3.4090   3.4090   6.8959   6.8959  16.5959  16.5959

          k =-0.2510 0.5020 0.0000 (   733 PWs)   bands (ev):

    -4.4708   2.0147   3.5266   4.8764   8.7363  10.2655  10.4757  11.8846

          k = 0.6275-0.3765 0.8785 (   729 PWs)   bands (ev):

    -3.5522   0.4125   2.9105   4.3505   9.1675   9.8679  11.3508  12.3142

          k = 0.5020-0.2510 0.7530 (   722 PWs)   bands (ev):

    -2.8682  -0.5756   2.7857   4.1096   9.3851   9.4028  12.2932  13.7879

          k = 0.7530-0.2510 1.0040 (   728 PWs)   bands (ev):

    -3.1696   0.3238   2.8564   3.4825   8.2049   8.8867  12.1364  14.4155

          k = 0.6275-0.1255 0.8785 (   721 PWs)   bands (ev):

    -2.2597  -0.6735   2.1225   3.2718   8.6444  10.5659  11.6506  13.8331

          k = 0.5020 0.0000 0.7530 (   726 PWs)   bands (ev):

    -2.6211  -0.3027   1.9466   3.6643   9.1416  10.8648  11.5569  13.3952

          k =-0.2510-1.0040 0.0000 (   730 PWs)   bands (ev):

    -1.4926  -1.4926   2.7984   2.7984   8.2111   8.2111  14.2540  14.2541

          k =-0.5020-1.0040 0.0000 (   724 PWs)   bands (ev):

    -1.3968  -1.3968   2.3322   2.3322  10.5356  10.5356  11.3856  11.3856

     highest occupied, lowest unoccupied level (ev):     6.3480    6.8167

!    total energy              =     -19.26002240 Ry
     estimated scf accuracy    <          8.2E-10 Ry

     The total energy is the sum of the following terms:
     one-electron contribution =       5.29040032 Ry
     hartree contribution      =       1.08761472 Ry
     xc contribution           =      -8.66058806 Ry
     ewald contribution        =     -16.97744938 Ry

     convergence has been achieved in   5 iterations

     Forces acting on atoms (cartesian axes, Ry/au):

     atom    1 type  1   force =     0.00000000    0.00000000    0.00000000
     atom    2 type  1   force =    -0.00000000   -0.00000000   -0.00000000

     Total force =     0.000000     Total SCF correction =     0.000000


     Computing stress (Cartesian axis) and pressure

          total   stress  (Ry/bohr**3)                   (kbar)     P=       15.34
   0.00010428   0.00000000  -0.00000000           15.34        0.00       -0.00
   0.00000000   0.00010428  -0.00000000            0.00       15.34       -0.00
  -0.00000000  -0.00000000   0.00010428           -0.00       -0.00       15.34


     Writing all to output data dir ./Si_elastic.save/
 
     init_run     :      1.22s CPU      1.29s WALL (       1 calls)
     electrons    :      8.08s CPU      9.08s WALL (       1 calls)
     forces       :      0.23s CPU      0.25s WALL (       1 calls)
     stress       :      1.63s CPU      1.67s WALL (       1 calls)

     Called by init_run:
     wfcinit      :      0.25s CPU      0.27s WALL (       1 calls)
     potinit      :      0.02s CPU      0.03s WALL (       1 calls)
     hinit0       :      0.79s CPU      0.81s WALL (       1 calls)

     Called by electrons:
     c_bands      :      5.92s CPU      6.67s WALL (       6 calls)
     sum_band     :      1.52s CPU      1.61s WALL (       6 calls)
     v_of_rho     :      0.09s CPU      0.09s WALL (       6 calls)
     newd         :      0.64s CPU      0.72s WALL (       6 calls)
     mix_rho      :      0.02s CPU      0.02s WALL (       6 calls)

     Called by c_bands:
     init_us_2    :      0.32s CPU      0.36s WALL (     435 calls)
     init_us_2:cp :      0.31s CPU      0.35s WALL (     435 calls)
     ccgdiagg     :      4.89s CPU      5.32s WALL (     174 calls)
     wfcrot       :      1.03s CPU      1.08s WALL (     145 calls)

     Called by *cgdiagg:
     h_psi        :      4.62s CPU      4.97s WALL (    4027 calls)
     s_psi        :      0.42s CPU      0.47s WALL (    7909 calls)

     Called by h_psi:
     h_psi:calbec :      0.39s CPU      0.42s WALL (    4027 calls)
     vloc_psi     :      3.75s CPU      4.04s WALL (    4027 calls)
     add_vuspsi   :      0.27s CPU      0.30s WALL (    4027 calls)
     hs_1psi      :      4.11s CPU      4.46s WALL (    3882 calls)
     s_1psi       :      0.52s CPU      0.57s WALL (    3882 calls)

     General routines
     calbec       :      0.58s CPU      0.64s WALL (    8228 calls)
     fft          :      0.05s CPU      0.06s WALL (      43 calls)
     ffts         :      0.01s CPU      0.01s WALL (      12 calls)
     fftw         :      3.66s CPU      3.92s WALL (   11476 calls)
     interpolate  :      0.01s CPU      0.02s WALL (       6 calls)
 
     Parallel routines
 
     PWSCF        :     11.70s CPU     13.21s WALL

 
   This run was terminated on:  15:22:33   8Mar2022            

=------------------------------------------------------------------------------=
   JOB DONE.
=------------------------------------------------------------------------------=
