
     Program PWSCF v.7.0 starts on  8Mar2022 at 15:22:34 

     This program is part of the open-source Quantum ESPRESSO suite
     for quantum simulation of materials; please cite
         "P. Giannozzi et al., J. Phys.:Condens. Matter 21 395502 (2009);
         "P. Giannozzi et al., J. Phys.:Condens. Matter 29 465901 (2017);
         "P. Giannozzi et al., J. Chem. Phys. 152 154105 (2020);
          URL http://www.quantum-espresso.org", 
     in publications or presentations arising from this work. More details at
     http://www.quantum-espresso.org/quote

     Parallel version (MPI), running on     1 processors

     MPI processes distributed on     1 nodes
     88997 MiB available memory on the printing compute node when the environment starts
 
     Waiting for input...
     Reading input from standard input
Warning: card &CELL ignored
Warning: card  CELL_DYNAMICS = 'BFGS', ignored
Warning: card  PRESS=0.1D0, ignored
Warning: card / ignored

     Current dimensions of program PWSCF are:
     Max number of different atomic species (ntypx) = 10
     Max number of k-points (npk) =  40000
     Max angular momentum in pseudopotentials (lmaxx) =  4
     Message from routine setup:
     using ibrav=0 with symmetry is DISCOURAGED, use correct ibrav instead

     Subspace diagonalization in iterative solution of the eigenvalue problem:
     a serial algorithm will be used

 
     G-vector sticks info
     --------------------
     sticks:   dense  smooth     PW     G-vecs:    dense   smooth      PW
     Sum        1069     433    139                23049     5817    1067
 
     Using Slab Decomposition
 


     bravais-lattice index     =            0
     lattice parameter (alat)  =      10.1941  a.u.
     unit-cell volume          =     263.2560 (a.u.)^3
     number of atoms/cell      =            2
     number of atomic types    =            1
     number of electrons       =         8.00
     number of Kohn-Sham states=            8
     kinetic-energy cutoff     =      30.0000  Ry
     charge density cutoff     =     300.0000  Ry
     scf convergence threshold =      1.0E-08
     mixing beta               =       0.7000
     number of iterations used =            8  plain     mixing
     Exchange-correlation= SLA  PZ   NOGX NOGC
                           (   1   1   0   0   0   0   0)

     celldm(1)=  10.194100  celldm(2)=   0.000000  celldm(3)=   0.000000
     celldm(4)=   0.000000  celldm(5)=   0.000000  celldm(6)=   0.000000

     crystal axes: (cart. coord. in units of alat)
               a(1) = (  -0.499000   0.000000   0.499000 )  
               a(2) = (   0.000000   0.499000   0.499000 )  
               a(3) = (  -0.499000   0.499000   0.000000 )  

     reciprocal axes: (cart. coord. in units 2 pi/alat)
               b(1) = ( -1.002004 -1.002004  1.002004 )  
               b(2) = (  1.002004  1.002004  1.002004 )  
               b(3) = ( -1.002004  1.002004 -1.002004 )  


     PseudoPot. # 1 for Si read from file:
     ./Si_LDA.UPF
     MD5 check sum: b5ade7b37ee992b02096e360e546dc2d
     Pseudo is Ultrasoft + core correction, Zval =  4.0
     Generated by new atomic code, or converted to UPF format
     Using radial grid of  899 points,  6 beta functions with: 
                l(1) =   0
                l(2) =   0
                l(3) =   1
                l(4) =   1
                l(5) =   2
                l(6) =   2
     Q(r) pseudized with  8 coefficients,  rinner =    0.900   0.900   0.900
                                                       0.900   0.900

     atomic species   valence    mass     pseudopotential
        Si             4.00    28.08550     Si( 1.00)

     48 Sym. Ops., with inversion, found (24 have fractional translation)



   Cartesian axes

     site n.     atom                  positions (alat units)
         1           Si  tau(   1) = (   0.0000000   0.0000000   0.0000000  )
         2           Si  tau(   2) = (  -0.2495000   0.2495000   0.2495000  )

     number of k points=    29
                       cart. coord. in units 2pi/alat
        k(    1) = (   0.0000000   0.0000000   0.0000000), wk =   0.0039062
        k(    2) = (  -0.1252505   0.1252505  -0.1252505), wk =   0.0312500
        k(    3) = (  -0.2505010   0.2505010  -0.2505010), wk =   0.0312500
        k(    4) = (  -0.3757515   0.3757515  -0.3757515), wk =   0.0312500
        k(    5) = (   0.5010020  -0.5010020   0.5010020), wk =   0.0156250
        k(    6) = (   0.0000000   0.2505010   0.0000000), wk =   0.0234375
        k(    7) = (  -0.1252505   0.3757515  -0.1252505), wk =   0.0937500
        k(    8) = (  -0.2505010   0.5010020  -0.2505010), wk =   0.0937500
        k(    9) = (   0.6262525  -0.3757515   0.6262525), wk =   0.0937500
        k(   10) = (   0.5010020  -0.2505010   0.5010020), wk =   0.0937500
        k(   11) = (   0.3757515  -0.1252505   0.3757515), wk =   0.0937500
        k(   12) = (   0.2505010   0.0000000   0.2505010), wk =   0.0468750
        k(   13) = (   0.0000000   0.5010020   0.0000000), wk =   0.0234375
        k(   14) = (  -0.1252505   0.6262525  -0.1252505), wk =   0.0937500
        k(   15) = (   0.7515030  -0.2505010   0.7515030), wk =   0.0937500
        k(   16) = (   0.6262525  -0.1252505   0.6262525), wk =   0.0937500
        k(   17) = (   0.5010020   0.0000000   0.5010020), wk =   0.0468750
        k(   18) = (   0.0000000   0.7515030   0.0000000), wk =   0.0234375
        k(   19) = (   0.8767535  -0.1252505   0.8767535), wk =   0.0937500
        k(   20) = (   0.7515030   0.0000000   0.7515030), wk =   0.0468750
        k(   21) = (   0.0000000  -1.0020040   0.0000000), wk =   0.0117188
        k(   22) = (  -0.2505010   0.5010020   0.0000000), wk =   0.0937500
        k(   23) = (   0.6262525  -0.3757515   0.8767535), wk =   0.1875000
        k(   24) = (   0.5010020  -0.2505010   0.7515030), wk =   0.0937500
        k(   25) = (   0.7515030  -0.2505010   1.0020040), wk =   0.0937500
        k(   26) = (   0.6262525  -0.1252505   0.8767535), wk =   0.1875000
        k(   27) = (   0.5010020   0.0000000   0.7515030), wk =   0.0937500
        k(   28) = (  -0.2505010  -1.0020040  -0.0000000), wk =   0.0468750
        k(   29) = (  -0.5010020  -1.0020040   0.0000000), wk =   0.0234375

     Dense  grid:    23049 G-vectors     FFT dimensions: (  40,  40,  40)

     Smooth grid:     5817 G-vectors     FFT dimensions: (  25,  25,  25)

     Estimated max dynamical RAM per process >      89.00 MB

     Initial potential from superposition of free atoms

     starting charge       7.9988, renormalised to       8.0000
     Starting wfcs are    8 randomized atomic wfcs

     total cpu time spent up to now is        1.9 secs

     Self-consistent Calculation

     iteration #  1     ecut=    30.00 Ry     beta= 0.70
     CG style diagonalization
     ethr =  1.00E-02,  avg # of iterations =  3.6

     Threshold (ethr) on eigenvalues was too large:
     Diagonalizing with lowered threshold

     CG style diagonalization
     ethr =  7.44E-04,  avg # of iterations =  2.0

     total cpu time spent up to now is        4.6 secs

     total energy              =     -19.25639307 Ry
     estimated scf accuracy    <       0.06038372 Ry

     iteration #  2     ecut=    30.00 Ry     beta= 0.70
     CG style diagonalization
     ethr =  7.55E-04,  avg # of iterations =  3.0

     total cpu time spent up to now is        5.9 secs

     total energy              =     -19.25990140 Ry
     estimated scf accuracy    <       0.00171061 Ry

     iteration #  3     ecut=    30.00 Ry     beta= 0.70
     CG style diagonalization
     ethr =  2.14E-05,  avg # of iterations =  3.7

     total cpu time spent up to now is        7.5 secs

     total energy              =     -19.26012359 Ry
     estimated scf accuracy    <       0.00003869 Ry

     iteration #  4     ecut=    30.00 Ry     beta= 0.70
     CG style diagonalization
     ethr =  4.84E-07,  avg # of iterations =  4.2

     total cpu time spent up to now is        9.3 secs

     total energy              =     -19.26015429 Ry
     estimated scf accuracy    <       0.00000030 Ry

     iteration #  5     ecut=    30.00 Ry     beta= 0.70
     CG style diagonalization
     ethr =  3.81E-09,  avg # of iterations =  4.0

     total cpu time spent up to now is       10.9 secs

     End of self-consistent calculation

          k = 0.0000 0.0000 0.0000 (   725 PWs)   bands (ev):

    -5.8604   6.2838   6.2838   6.2838   8.8222   8.8222   8.8222   9.7659

          k =-0.1253 0.1253-0.1253 (   727 PWs)   bands (ev):

    -5.6517   4.6598   5.9864   5.9864   8.7769   9.2570   9.2570  11.0822

          k =-0.2505 0.2505-0.2505 (   733 PWs)   bands (ev):

    -5.0419   2.2880   5.5072   5.5072   8.2964   9.7726   9.7726  13.2502

          k =-0.3758 0.3758-0.3758 (   745 PWs)   bands (ev):

    -4.1225   0.2225   5.1768   5.1768   7.9283   9.6938   9.6938  14.0216

          k = 0.5010-0.5010 0.5010 (   718 PWs)   bands (ev):

    -3.4572  -0.8341   5.0642   5.0642   7.7994   9.5728   9.5728  13.8398

          k = 0.0000 0.2505 0.0000 (   729 PWs)   bands (ev):

    -5.5814   4.9551   5.4502   5.4502   8.2334   9.9912   9.9912  10.7559

          k =-0.1253 0.3758-0.1253 (   726 PWs)   bands (ev):

    -5.1019   3.0204   4.9276   5.0109   8.3697  10.0207  10.7620  10.9727

          k =-0.2505 0.5010-0.2505 (   736 PWs)   bands (ev):

    -4.2656   0.9116   4.4057   4.6573   8.4719   9.9203  10.7367  11.7079

          k = 0.6263-0.3758 0.6263 (   732 PWs)   bands (ev):

    -3.3723  -0.5963   3.9488   4.6864   8.4264   9.7634  10.3536  13.6347

          k = 0.5010-0.2505 0.5010 (   735 PWs)   bands (ev):

    -3.6276  -0.2124   3.7584   4.9929   8.6139   9.8583  10.1181  14.1653

          k = 0.3758-0.1253 0.3758 (   735 PWs)   bands (ev):

    -4.5802   1.5874   3.9045   5.4975   8.9962   9.9418  10.1013  12.5740

          k = 0.2505 0.0000 0.2505 (   737 PWs)   bands (ev):

    -5.3077   3.5727   4.5947   5.9896   9.3448   9.3910   9.6126  11.8641

          k = 0.0000 0.5010 0.0000 (   729 PWs)   bands (ev):

    -4.7542   2.7549   4.3422   4.3422   7.3061   9.3192  12.0727  12.0727

          k =-0.1253 0.6263-0.1253 (   728 PWs)   bands (ev):

    -4.0271   1.3020   3.5311   4.0185   7.5267   9.0787  12.3168  12.5775

          k = 0.7515-0.2505 0.7515 (   724 PWs)   bands (ev):

    -3.0727  -0.1826   2.6406   4.0241   7.6871  10.6695  12.0644  12.2090

          k = 0.6263-0.1253 0.6263 (   726 PWs)   bands (ev):

    -2.8577  -0.4532   2.1652   4.3522   8.0257  11.7289  11.7647  13.2537

          k = 0.5010 0.0000 0.5010 (   742 PWs)   bands (ev):

    -3.7657   0.7433   2.4037   4.9269   8.6673  11.0802  11.3889  12.4417

          k = 0.0000 0.7515 0.0000 (   733 PWs)   bands (ev):

    -3.4121   0.4915   3.6112   3.6112   6.7620   7.6806  14.3758  14.3759

          k = 0.8768-0.1253 0.8768 (   731 PWs)   bands (ev):

    -2.4921  -0.6134   2.7366   3.5343   7.0376   8.1436  14.5950  14.6906

          k = 0.7515 0.0000 0.7515 (   724 PWs)   bands (ev):

    -2.0299  -1.0253   1.8290   3.7989   7.3556  10.3520  13.7979  14.5783

          k = 0.0000-1.0020 0.0000 (   740 PWs)   bands (ev):

    -1.6230  -1.6230   3.3608   3.3608   6.8434   6.8434  16.4797  16.4798

          k =-0.2505 0.5010 0.0000 (   733 PWs)   bands (ev):

    -4.5000   1.9562   3.4794   4.8196   8.6702  10.1845  10.4092  11.8026

          k = 0.6263-0.3758 0.8768 (   732 PWs)   bands (ev):

    -3.5870   0.3637   2.8640   4.2978   9.1002   9.7963  11.2740  12.2324

          k = 0.5010-0.2505 0.7515 (   722 PWs)   bands (ev):

    -2.9084  -0.6169   2.7383   4.0590   9.3249   9.3260  12.2110  13.6971

          k = 0.7515-0.2505 1.0020 (   734 PWs)   bands (ev):

    -3.2060   0.2695   2.8129   3.4361   8.1427   8.8263  12.0517  14.3221

          k = 0.6263-0.1253 0.8768 (   723 PWs)   bands (ev):

    -2.3024  -0.7220   2.0843   3.2268   8.5819  10.4983  11.5671  13.7437

          k = 0.5010 0.0000 0.7515 (   726 PWs)   bands (ev):

    -2.6617  -0.3528   1.9098   3.6165   9.0765  10.7920  11.4781  13.3118

          k =-0.2505-1.0020-0.0000 (   730 PWs)   bands (ev):

    -1.5382  -1.5382   2.7560   2.7560   8.1510   8.1510  14.1623  14.1623

          k =-0.5010-1.0020 0.0000 (   724 PWs)   bands (ev):

    -1.4440  -1.4440   2.2940   2.2940  10.4714  10.4714  11.3002  11.3002

     highest occupied, lowest unoccupied level (ev):     6.2838    6.7620

!    total energy              =     -19.26015489 Ry
     estimated scf accuracy    <          1.3E-09 Ry

     The total energy is the sum of the following terms:
     one-electron contribution =       5.24357969 Ry
     hartree contribution      =       1.09271723 Ry
     xc contribution           =      -8.65302537 Ry
     ewald contribution        =     -16.94342643 Ry

     convergence has been achieved in   5 iterations

     Forces acting on atoms (cartesian axes, Ry/au):

     atom    1 type  1   force =     0.00000000    0.00000000   -0.00000000
     atom    2 type  1   force =    -0.00000000   -0.00000000    0.00000000

     Total force =     0.000000     Total SCF correction =     0.000000


     Computing stress (Cartesian axis) and pressure

          total   stress  (Ry/bohr**3)                   (kbar)     P=        9.20
   0.00006254   0.00000000  -0.00000000            9.20        0.00       -0.00
  -0.00000000   0.00006254  -0.00000000           -0.00        9.20       -0.00
   0.00000000   0.00000000   0.00006254            0.00        0.00        9.20


     Writing all to output data dir ./Si_elastic.save/
 
     init_run     :      1.25s CPU      1.30s WALL (       1 calls)
     electrons    :      8.07s CPU      9.05s WALL (       1 calls)
     forces       :      0.23s CPU      0.25s WALL (       1 calls)
     stress       :      1.65s CPU      1.68s WALL (       1 calls)

     Called by init_run:
     wfcinit      :      0.27s CPU      0.28s WALL (       1 calls)
     potinit      :      0.02s CPU      0.03s WALL (       1 calls)
     hinit0       :      0.79s CPU      0.81s WALL (       1 calls)

     Called by electrons:
     c_bands      :      5.91s CPU      6.70s WALL (       6 calls)
     sum_band     :      1.50s CPU      1.61s WALL (       6 calls)
     v_of_rho     :      0.09s CPU      0.09s WALL (       6 calls)
     newd         :      0.65s CPU      0.72s WALL (       6 calls)
     mix_rho      :      0.02s CPU      0.02s WALL (       6 calls)

     Called by c_bands:
     init_us_2    :      0.32s CPU      0.36s WALL (     435 calls)
     init_us_2:cp :      0.31s CPU      0.35s WALL (     435 calls)
     ccgdiagg     :      4.88s CPU      5.36s WALL (     174 calls)
     wfcrot       :      1.06s CPU      1.10s WALL (     145 calls)

     Called by *cgdiagg:
     h_psi        :      4.62s CPU      5.00s WALL (    4011 calls)
     s_psi        :      0.43s CPU      0.48s WALL (    7877 calls)

     Called by h_psi:
     h_psi:calbec :      0.40s CPU      0.43s WALL (    4011 calls)
     vloc_psi     :      3.73s CPU      4.05s WALL (    4011 calls)
     add_vuspsi   :      0.28s CPU      0.30s WALL (    4011 calls)
     hs_1psi      :      4.08s CPU      4.47s WALL (    3866 calls)
     s_1psi       :      0.54s CPU      0.60s WALL (    3866 calls)

     General routines
     calbec       :      0.60s CPU      0.66s WALL (    8196 calls)
     fft          :      0.06s CPU      0.06s WALL (      43 calls)
     ffts         :      0.01s CPU      0.01s WALL (      12 calls)
     fftw         :      3.64s CPU      3.93s WALL (   11444 calls)
     interpolate  :      0.01s CPU      0.01s WALL (       6 calls)
 
     Parallel routines
 
     PWSCF        :     11.75s CPU     13.20s WALL

 
   This run was terminated on:  15:22:48   8Mar2022            

=------------------------------------------------------------------------------=
   JOB DONE.
=------------------------------------------------------------------------------=
