
     Program PWSCF v.7.0 starts on  8Mar2022 at 15:23:33 

     This program is part of the open-source Quantum ESPRESSO suite
     for quantum simulation of materials; please cite
         "P. Giannozzi et al., J. Phys.:Condens. Matter 21 395502 (2009);
         "P. Giannozzi et al., J. Phys.:Condens. Matter 29 465901 (2017);
         "P. Giannozzi et al., J. Chem. Phys. 152 154105 (2020);
          URL http://www.quantum-espresso.org", 
     in publications or presentations arising from this work. More details at
     http://www.quantum-espresso.org/quote

     Parallel version (MPI), running on     1 processors

     MPI processes distributed on     1 nodes
     88996 MiB available memory on the printing compute node when the environment starts
 
     Waiting for input...
     Reading input from standard input
Warning: card &CELL ignored
Warning: card  CELL_DYNAMICS = 'BFGS', ignored
Warning: card  PRESS=0.1D0, ignored
Warning: card / ignored

     Current dimensions of program PWSCF are:
     Max number of different atomic species (ntypx) = 10
     Max number of k-points (npk) =  40000
     Max angular momentum in pseudopotentials (lmaxx) =  4
     Message from routine setup:
     using ibrav=0 with symmetry is DISCOURAGED, use correct ibrav instead

     Subspace diagonalization in iterative solution of the eigenvalue problem:
     a serial algorithm will be used

 
     G-vector sticks info
     --------------------
     sticks:   dense  smooth     PW     G-vecs:    dense   smooth      PW
     Sum        1069     433    151                23505     5961    1139
 
     Using Slab Decomposition
 


     bravais-lattice index     =            0
     lattice parameter (alat)  =      10.1941  a.u.
     unit-cell volume          =     269.6377 (a.u.)^3
     number of atoms/cell      =            2
     number of atomic types    =            1
     number of electrons       =         8.00
     number of Kohn-Sham states=            8
     kinetic-energy cutoff     =      30.0000  Ry
     charge density cutoff     =     300.0000  Ry
     scf convergence threshold =      1.0E-08
     mixing beta               =       0.7000
     number of iterations used =            8  plain     mixing
     Exchange-correlation= SLA  PZ   NOGX NOGC
                           (   1   1   0   0   0   0   0)

     celldm(1)=  10.194100  celldm(2)=   0.000000  celldm(3)=   0.000000
     celldm(4)=   0.000000  celldm(5)=   0.000000  celldm(6)=   0.000000

     crystal axes: (cart. coord. in units of alat)
               a(1) = (  -0.503000   0.000000   0.503000 )  
               a(2) = (   0.000000   0.503000   0.503000 )  
               a(3) = (  -0.503000   0.503000   0.000000 )  

     reciprocal axes: (cart. coord. in units 2 pi/alat)
               b(1) = ( -0.994036 -0.994036  0.994036 )  
               b(2) = (  0.994036  0.994036  0.994036 )  
               b(3) = ( -0.994036  0.994036 -0.994036 )  


     PseudoPot. # 1 for Si read from file:
     ./Si_LDA.UPF
     MD5 check sum: b5ade7b37ee992b02096e360e546dc2d
     Pseudo is Ultrasoft + core correction, Zval =  4.0
     Generated by new atomic code, or converted to UPF format
     Using radial grid of  899 points,  6 beta functions with: 
                l(1) =   0
                l(2) =   0
                l(3) =   1
                l(4) =   1
                l(5) =   2
                l(6) =   2
     Q(r) pseudized with  8 coefficients,  rinner =    0.900   0.900   0.900
                                                       0.900   0.900

     atomic species   valence    mass     pseudopotential
        Si             4.00    28.08550     Si( 1.00)

     48 Sym. Ops., with inversion, found (24 have fractional translation)



   Cartesian axes

     site n.     atom                  positions (alat units)
         1           Si  tau(   1) = (   0.0000000   0.0000000   0.0000000  )
         2           Si  tau(   2) = (  -0.2515000   0.2515000   0.2515000  )

     number of k points=    29
                       cart. coord. in units 2pi/alat
        k(    1) = (   0.0000000   0.0000000   0.0000000), wk =   0.0039062
        k(    2) = (  -0.1242545   0.1242545  -0.1242545), wk =   0.0312500
        k(    3) = (  -0.2485089   0.2485089  -0.2485089), wk =   0.0312500
        k(    4) = (  -0.3727634   0.3727634  -0.3727634), wk =   0.0312500
        k(    5) = (   0.4970179  -0.4970179   0.4970179), wk =   0.0156250
        k(    6) = (   0.0000000   0.2485089   0.0000000), wk =   0.0234375
        k(    7) = (  -0.1242545   0.3727634  -0.1242545), wk =   0.0937500
        k(    8) = (  -0.2485089   0.4970179  -0.2485089), wk =   0.0937500
        k(    9) = (   0.6212724  -0.3727634   0.6212724), wk =   0.0937500
        k(   10) = (   0.4970179  -0.2485089   0.4970179), wk =   0.0937500
        k(   11) = (   0.3727634  -0.1242545   0.3727634), wk =   0.0937500
        k(   12) = (   0.2485089   0.0000000   0.2485089), wk =   0.0468750
        k(   13) = (   0.0000000   0.4970179   0.0000000), wk =   0.0234375
        k(   14) = (  -0.1242545   0.6212724  -0.1242545), wk =   0.0937500
        k(   15) = (   0.7455268  -0.2485089   0.7455268), wk =   0.0937500
        k(   16) = (   0.6212724  -0.1242545   0.6212724), wk =   0.0937500
        k(   17) = (   0.4970179   0.0000000   0.4970179), wk =   0.0468750
        k(   18) = (   0.0000000   0.7455268   0.0000000), wk =   0.0234375
        k(   19) = (   0.8697813  -0.1242545   0.8697813), wk =   0.0937500
        k(   20) = (   0.7455268   0.0000000   0.7455268), wk =   0.0468750
        k(   21) = (   0.0000000  -0.9940358   0.0000000), wk =   0.0117188
        k(   22) = (  -0.2485089   0.4970179   0.0000000), wk =   0.0937500
        k(   23) = (   0.6212724  -0.3727634   0.8697813), wk =   0.1875000
        k(   24) = (   0.4970179  -0.2485089   0.7455268), wk =   0.0937500
        k(   25) = (   0.7455268  -0.2485089   0.9940358), wk =   0.0937500
        k(   26) = (   0.6212724  -0.1242545   0.8697813), wk =   0.1875000
        k(   27) = (   0.4970179   0.0000000   0.7455268), wk =   0.0937500
        k(   28) = (  -0.2485089  -0.9940358  -0.0000000), wk =   0.0468750
        k(   29) = (  -0.4970179  -0.9940358   0.0000000), wk =   0.0234375

     Dense  grid:    23505 G-vectors     FFT dimensions: (  40,  40,  40)

     Smooth grid:     5961 G-vectors     FFT dimensions: (  25,  25,  25)

     Estimated max dynamical RAM per process >      90.67 MB

     Initial potential from superposition of free atoms

     starting charge       7.9988, renormalised to       8.0000
     Starting wfcs are    8 randomized atomic wfcs

     total cpu time spent up to now is        1.8 secs

     Self-consistent Calculation

     iteration #  1     ecut=    30.00 Ry     beta= 0.70
     CG style diagonalization
     ethr =  1.00E-02,  avg # of iterations =  3.6

     Threshold (ethr) on eigenvalues was too large:
     Diagonalizing with lowered threshold

     CG style diagonalization
     ethr =  7.14E-04,  avg # of iterations =  2.0

     total cpu time spent up to now is        4.5 secs

     total energy              =     -19.25664121 Ry
     estimated scf accuracy    <       0.05791889 Ry

     iteration #  2     ecut=    30.00 Ry     beta= 0.70
     CG style diagonalization
     ethr =  7.24E-04,  avg # of iterations =  3.0

     total cpu time spent up to now is        5.8 secs

     total energy              =     -19.25980627 Ry
     estimated scf accuracy    <       0.00173407 Ry

     iteration #  3     ecut=    30.00 Ry     beta= 0.70
     CG style diagonalization
     ethr =  2.17E-05,  avg # of iterations =  3.7

     total cpu time spent up to now is        7.4 secs

     total energy              =     -19.26002161 Ry
     estimated scf accuracy    <       0.00003637 Ry

     iteration #  4     ecut=    30.00 Ry     beta= 0.70
     CG style diagonalization
     ethr =  4.55E-07,  avg # of iterations =  4.3

     total cpu time spent up to now is        9.2 secs

     total energy              =     -19.26005396 Ry
     estimated scf accuracy    <       0.00000016 Ry

     iteration #  5     ecut=    30.00 Ry     beta= 0.70
     CG style diagonalization
     ethr =  2.06E-09,  avg # of iterations =  4.1

     total cpu time spent up to now is       10.9 secs

     End of self-consistent calculation

          k = 0.0000 0.0000 0.0000 (   725 PWs)   bands (ev):

    -5.9472   6.0315   6.0315   6.0315   8.5597   8.5597   8.5597   9.2378

          k =-0.1243 0.1243-0.1243 (   743 PWs)   bands (ev):

    -5.7427   4.4155   5.7412   5.7412   8.4554   8.9846   8.9846  10.6145

          k =-0.2485 0.2485-0.2485 (   754 PWs)   bands (ev):

    -5.1459   2.0804   5.2704   5.2704   7.9601   9.5005   9.5005  12.8016

          k =-0.3728 0.3728-0.3728 (   757 PWs)   bands (ev):

    -4.2487   0.0555   4.9443   4.9443   7.5898   9.4428   9.4428  13.7166

          k = 0.4970-0.4970 0.4970 (   754 PWs)   bands (ev):

    -3.6053  -0.9727   4.8330   4.8330   7.4603   9.3304   9.3304  13.5526

          k = 0.0000 0.2485 0.0000 (   745 PWs)   bands (ev):

    -5.6739   4.6799   5.2200   5.2200   7.9823   9.7004   9.7004  10.2982

          k =-0.1243 0.3728-0.1243 (   753 PWs)   bands (ev):

    -5.2043   2.7875   4.7076   4.7755   8.1113   9.6700  10.4616  10.7078

          k =-0.2485 0.4970-0.2485 (   746 PWs)   bands (ev):

    -4.3869   0.7226   4.1791   4.4405   8.1973   9.6084  10.4572  11.4195

          k = 0.6213-0.3728 0.6213 (   751 PWs)   bands (ev):

    -3.5199  -0.7473   3.7319   4.4667   8.1389   9.4762  10.0922  13.3035

          k = 0.4970-0.2485 0.4970 (   750 PWs)   bands (ev):

    -3.7665  -0.3743   3.5492   4.7650   8.3054   9.5843   9.8596  13.8098

          k = 0.3728-0.1243 0.3728 (   748 PWs)   bands (ev):

    -4.6942   1.3836   3.6996   5.2580   8.6685   9.6697   9.8236  12.2181

          k = 0.2485 0.0000 0.2485 (   753 PWs)   bands (ev):

    -5.4059   3.3292   4.3856   5.7399   9.0050   9.1190   9.3253  11.4728

          k = 0.0000 0.4970 0.0000 (   729 PWs)   bands (ev):

    -4.8635   2.4979   4.1348   4.1348   7.0748   9.0709  11.7417  11.7419

          k =-0.1243 0.6213-0.1243 (   751 PWs)   bands (ev):

    -4.1520   1.0759   3.3399   3.8167   7.2949   8.8355  11.9586  12.2534

          k = 0.7455-0.2485 0.7455 (   748 PWs)   bands (ev):

    -3.2221  -0.3694   2.4662   3.8208   7.4580  10.3985  11.6924  11.9075

          k = 0.6213-0.1243 0.6213 (   744 PWs)   bands (ev):

    -3.0154  -0.6300   2.0034   4.1409   7.7850  11.4044  11.4684  12.9073

          k = 0.4970 0.0000 0.4970 (   754 PWs)   bands (ev):

    -3.8984   0.5350   2.2435   4.7018   8.4001  10.7785  11.0793  12.0612

          k = 0.0000 0.7455 0.0000 (   753 PWs)   bands (ev):

    -3.5491   0.2738   3.4176   3.4176   6.5469   7.4683  14.0036  14.0036

          k = 0.8698-0.1243 0.8698 (   747 PWs)   bands (ev):

    -2.6499  -0.8100   2.5701   3.3416   6.8245   7.9092  14.2367  14.2928

          k = 0.7455 0.0000 0.7455 (   740 PWs)   bands (ev):

    -2.2062  -1.2086   1.6898   3.6003   7.1357  10.0796  13.4413  14.1440

          k = 0.0000-0.9940 0.0000 (   740 PWs)   bands (ev):

    -1.7975  -1.7975   3.1717   3.1717   6.6363   6.6363  16.0220  16.0221

          k =-0.2485 0.4970 0.0000 (   755 PWs)   bands (ev):

    -4.6152   1.7255   3.2939   4.5965   8.4101   9.8535  10.1565  11.4793

          k = 0.6213-0.3728 0.8698 (   747 PWs)   bands (ev):

    -3.7239   0.1706   2.6818   4.0910   8.8331   9.5140  10.9710  11.9112

          k = 0.4970-0.2485 0.7455 (   750 PWs)   bands (ev):

    -3.0668  -0.7800   2.5527   3.8599   9.0217   9.0874  11.8855  13.3398

          k = 0.7455-0.2485 0.9940 (   755 PWs)   bands (ev):

    -3.3491   0.0558   2.6425   3.2538   7.8976   8.5871  11.7177  13.9528

          k = 0.6213-0.1243 0.8698 (   744 PWs)   bands (ev):

    -2.4703  -0.9130   1.9343   3.0498   8.3356  10.2316  11.2376  13.3897

          k = 0.4970 0.0000 0.7455 (   747 PWs)   bands (ev):

    -2.8215  -0.5501   1.7650   3.4288   8.8192  10.5044  11.1667  12.9825

          k =-0.2485-0.9940-0.0000 (   742 PWs)   bands (ev):

    -1.7177  -1.7177   2.5894   2.5894   7.9140   7.9140  13.7994  13.7994

          k =-0.4970-0.9940 0.0000 (   744 PWs)   bands (ev):

    -1.6297  -1.6297   2.1438   2.1438  10.2188  10.2188  10.9628  10.9628

     highest occupied, lowest unoccupied level (ev):     6.0315    6.5469

!    total energy              =     -19.26005446 Ry
     estimated scf accuracy    <          1.1E-09 Ry

     The total energy is the sum of the following terms:
     one-electron contribution =       5.05869598 Ry
     hartree contribution      =       1.11321185 Ry
     xc contribution           =      -8.62327483 Ry
     ewald contribution        =     -16.80868745 Ry

     convergence has been achieved in   5 iterations

     Forces acting on atoms (cartesian axes, Ry/au):

     atom    1 type  1   force =    -0.00000000    0.00000000   -0.00000000
     atom    2 type  1   force =     0.00000000   -0.00000000    0.00000000

     Total force =     0.000000     Total SCF correction =     0.000000


     Computing stress (Cartesian axis) and pressure

          total   stress  (Ry/bohr**3)                   (kbar)     P=      -13.71
  -0.00009322  -0.00000000   0.00000000          -13.71       -0.00        0.00
   0.00000000  -0.00009322  -0.00000000            0.00      -13.71       -0.00
   0.00000000  -0.00000000  -0.00009322            0.00       -0.00      -13.71


     Writing all to output data dir ./Si_elastic.save/
 
     init_run     :      1.22s CPU      1.29s WALL (       1 calls)
     electrons    :      8.18s CPU      9.15s WALL (       1 calls)
     forces       :      0.24s CPU      0.26s WALL (       1 calls)
     stress       :      1.69s CPU      1.73s WALL (       1 calls)

     Called by init_run:
     wfcinit      :      0.26s CPU      0.27s WALL (       1 calls)
     potinit      :      0.02s CPU      0.03s WALL (       1 calls)
     hinit0       :      0.79s CPU      0.81s WALL (       1 calls)

     Called by electrons:
     c_bands      :      5.99s CPU      6.77s WALL (       6 calls)
     sum_band     :      1.53s CPU      1.63s WALL (       6 calls)
     v_of_rho     :      0.09s CPU      0.09s WALL (       6 calls)
     newd         :      0.65s CPU      0.73s WALL (       6 calls)
     mix_rho      :      0.02s CPU      0.02s WALL (       6 calls)

     Called by c_bands:
     init_us_2    :      0.33s CPU      0.37s WALL (     435 calls)
     init_us_2:cp :      0.32s CPU      0.36s WALL (     435 calls)
     ccgdiagg     :      4.95s CPU      5.41s WALL (     174 calls)
     wfcrot       :      1.03s CPU      1.09s WALL (     145 calls)

     Called by *cgdiagg:
     h_psi        :      4.62s CPU      4.98s WALL (    4021 calls)
     s_psi        :      0.46s CPU      0.52s WALL (    7897 calls)

     Called by h_psi:
     h_psi:calbec :      0.40s CPU      0.43s WALL (    4021 calls)
     vloc_psi     :      3.73s CPU      4.03s WALL (    4021 calls)
     add_vuspsi   :      0.29s CPU      0.31s WALL (    4021 calls)
     hs_1psi      :      4.13s CPU      4.49s WALL (    3876 calls)
     s_1psi       :      0.56s CPU      0.63s WALL (    3876 calls)

     General routines
     calbec       :      0.60s CPU      0.67s WALL (    8216 calls)
     fft          :      0.05s CPU      0.06s WALL (      43 calls)
     ffts         :      0.00s CPU      0.01s WALL (      12 calls)
     fftw         :      3.65s CPU      3.92s WALL (   11464 calls)
     interpolate  :      0.01s CPU      0.02s WALL (       6 calls)
 
     Parallel routines
 
     PWSCF        :     11.86s CPU     13.25s WALL

 
   This run was terminated on:  15:23:46   8Mar2022            

=------------------------------------------------------------------------------=
   JOB DONE.
=------------------------------------------------------------------------------=
