
     Program PWSCF v.7.0 starts on  8Mar2022 at 15:22: 4 

     This program is part of the open-source Quantum ESPRESSO suite
     for quantum simulation of materials; please cite
         "P. Giannozzi et al., J. Phys.:Condens. Matter 21 395502 (2009);
         "P. Giannozzi et al., J. Phys.:Condens. Matter 29 465901 (2017);
         "P. Giannozzi et al., J. Chem. Phys. 152 154105 (2020);
          URL http://www.quantum-espresso.org", 
     in publications or presentations arising from this work. More details at
     http://www.quantum-espresso.org/quote

     Parallel version (MPI), running on     1 processors

     MPI processes distributed on     1 nodes
     89047 MiB available memory on the printing compute node when the environment starts
 
     Waiting for input...
     Reading input from standard input
Warning: card &CELL ignored
Warning: card  CELL_DYNAMICS = 'BFGS', ignored
Warning: card  PRESS=0.1D0, ignored
Warning: card / ignored

     Current dimensions of program PWSCF are:
     Max number of different atomic species (ntypx) = 10
     Max number of k-points (npk) =  40000
     Max angular momentum in pseudopotentials (lmaxx) =  4
     Message from routine setup:
     using ibrav=0 with symmetry is DISCOURAGED, use correct ibrav instead

     Subspace diagonalization in iterative solution of the eigenvalue problem:
     a serial algorithm will be used

 
     G-vector sticks info
     --------------------
     sticks:   dense  smooth     PW     G-vecs:    dense   smooth      PW
     Sum        1069     433    139                22995     5817    1067
 
     Using Slab Decomposition
 


     bravais-lattice index     =            0
     lattice parameter (alat)  =      10.1941  a.u.
     unit-cell volume          =     260.1033 (a.u.)^3
     number of atoms/cell      =            2
     number of atomic types    =            1
     number of electrons       =         8.00
     number of Kohn-Sham states=            8
     kinetic-energy cutoff     =      30.0000  Ry
     charge density cutoff     =     300.0000  Ry
     scf convergence threshold =      1.0E-08
     mixing beta               =       0.7000
     number of iterations used =            8  plain     mixing
     Exchange-correlation= SLA  PZ   NOGX NOGC
                           (   1   1   0   0   0   0   0)

     celldm(1)=  10.194100  celldm(2)=   0.000000  celldm(3)=   0.000000
     celldm(4)=   0.000000  celldm(5)=   0.000000  celldm(6)=   0.000000

     crystal axes: (cart. coord. in units of alat)
               a(1) = (  -0.497000   0.000000   0.497000 )  
               a(2) = (   0.000000   0.497000   0.497000 )  
               a(3) = (  -0.497000   0.497000   0.000000 )  

     reciprocal axes: (cart. coord. in units 2 pi/alat)
               b(1) = ( -1.006036 -1.006036  1.006036 )  
               b(2) = (  1.006036  1.006036  1.006036 )  
               b(3) = ( -1.006036  1.006036 -1.006036 )  


     PseudoPot. # 1 for Si read from file:
     ./Si_LDA.UPF
     MD5 check sum: b5ade7b37ee992b02096e360e546dc2d
     Pseudo is Ultrasoft + core correction, Zval =  4.0
     Generated by new atomic code, or converted to UPF format
     Using radial grid of  899 points,  6 beta functions with: 
                l(1) =   0
                l(2) =   0
                l(3) =   1
                l(4) =   1
                l(5) =   2
                l(6) =   2
     Q(r) pseudized with  8 coefficients,  rinner =    0.900   0.900   0.900
                                                       0.900   0.900

     atomic species   valence    mass     pseudopotential
        Si             4.00    28.08550     Si( 1.00)

     48 Sym. Ops., with inversion, found (24 have fractional translation)



   Cartesian axes

     site n.     atom                  positions (alat units)
         1           Si  tau(   1) = (   0.0000000   0.0000000   0.0000000  )
         2           Si  tau(   2) = (  -0.2485000   0.2485000   0.2485000  )

     number of k points=    29
                       cart. coord. in units 2pi/alat
        k(    1) = (   0.0000000   0.0000000   0.0000000), wk =   0.0039062
        k(    2) = (  -0.1257545   0.1257545  -0.1257545), wk =   0.0312500
        k(    3) = (  -0.2515091   0.2515091  -0.2515091), wk =   0.0312500
        k(    4) = (  -0.3772636   0.3772636  -0.3772636), wk =   0.0312500
        k(    5) = (   0.5030181  -0.5030181   0.5030181), wk =   0.0156250
        k(    6) = (   0.0000000   0.2515091   0.0000000), wk =   0.0234375
        k(    7) = (  -0.1257545   0.3772636  -0.1257545), wk =   0.0937500
        k(    8) = (  -0.2515091   0.5030181  -0.2515091), wk =   0.0937500
        k(    9) = (   0.6287726  -0.3772636   0.6287726), wk =   0.0937500
        k(   10) = (   0.5030181  -0.2515091   0.5030181), wk =   0.0937500
        k(   11) = (   0.3772636  -0.1257545   0.3772636), wk =   0.0937500
        k(   12) = (   0.2515091   0.0000000   0.2515091), wk =   0.0468750
        k(   13) = (   0.0000000   0.5030181   0.0000000), wk =   0.0234375
        k(   14) = (  -0.1257545   0.6287726  -0.1257545), wk =   0.0937500
        k(   15) = (   0.7545272  -0.2515091   0.7545272), wk =   0.0937500
        k(   16) = (   0.6287726  -0.1257545   0.6287726), wk =   0.0937500
        k(   17) = (   0.5030181   0.0000000   0.5030181), wk =   0.0468750
        k(   18) = (   0.0000000   0.7545272   0.0000000), wk =   0.0234375
        k(   19) = (   0.8802817  -0.1257545   0.8802817), wk =   0.0937500
        k(   20) = (   0.7545272   0.0000000   0.7545272), wk =   0.0468750
        k(   21) = (   0.0000000  -1.0060362   0.0000000), wk =   0.0117188
        k(   22) = (  -0.2515091   0.5030181   0.0000000), wk =   0.0937500
        k(   23) = (   0.6287726  -0.3772636   0.8802817), wk =   0.1875000
        k(   24) = (   0.5030181  -0.2515091   0.7545272), wk =   0.0937500
        k(   25) = (   0.7545272  -0.2515091   1.0060362), wk =   0.0937500
        k(   26) = (   0.6287726  -0.1257545   0.8802817), wk =   0.1875000
        k(   27) = (   0.5030181   0.0000000   0.7545272), wk =   0.0937500
        k(   28) = (  -0.2515091  -1.0060362  -0.0000000), wk =   0.0468750
        k(   29) = (  -0.5030181  -1.0060362   0.0000000), wk =   0.0234375

     Dense  grid:    22995 G-vectors     FFT dimensions: (  40,  40,  40)

     Smooth grid:     5817 G-vectors     FFT dimensions: (  25,  25,  25)

     Estimated max dynamical RAM per process >      88.78 MB

     Initial potential from superposition of free atoms

     starting charge       7.9988, renormalised to       8.0000
     Starting wfcs are    8 randomized atomic wfcs

     total cpu time spent up to now is        3.1 secs

     Self-consistent Calculation

     iteration #  1     ecut=    30.00 Ry     beta= 0.70
     CG style diagonalization
     ethr =  1.00E-02,  avg # of iterations =  3.6

     Threshold (ethr) on eigenvalues was too large:
     Diagonalizing with lowered threshold

     CG style diagonalization
     ethr =  7.59E-04,  avg # of iterations =  2.0

     total cpu time spent up to now is        5.8 secs

     total energy              =     -19.25589908 Ry
     estimated scf accuracy    <       0.06160633 Ry

     iteration #  2     ecut=    30.00 Ry     beta= 0.70
     CG style diagonalization
     ethr =  7.70E-04,  avg # of iterations =  3.0

     total cpu time spent up to now is        7.2 secs

     total energy              =     -19.25956767 Ry
     estimated scf accuracy    <       0.00170086 Ry

     iteration #  3     ecut=    30.00 Ry     beta= 0.70
     CG style diagonalization
     ethr =  2.13E-05,  avg # of iterations =  3.8

     total cpu time spent up to now is        8.8 secs

     total energy              =     -19.25979414 Ry
     estimated scf accuracy    <       0.00003987 Ry

     iteration #  4     ecut=    30.00 Ry     beta= 0.70
     CG style diagonalization
     ethr =  4.98E-07,  avg # of iterations =  4.2

     total cpu time spent up to now is       10.5 secs

     total energy              =     -19.25982257 Ry
     estimated scf accuracy    <       0.00000040 Ry

     iteration #  5     ecut=    30.00 Ry     beta= 0.70
     CG style diagonalization
     ethr =  5.03E-09,  avg # of iterations =  4.0

     total cpu time spent up to now is       12.1 secs

     End of self-consistent calculation

          k = 0.0000 0.0000 0.0000 (   725 PWs)   bands (ev):

    -5.8159   6.4129   6.4129   6.4129   8.9560   8.9560   8.9560  10.0354

          k =-0.1258 0.1258-0.1258 (   718 PWs)   bands (ev):

    -5.6050   4.7840   6.1119   6.1119   8.9385   9.3960   9.3960  11.3240

          k =-0.2515 0.2515-0.2515 (   721 PWs)   bands (ev):

    -4.9887   2.3937   5.6284   5.6284   8.4672   9.9112   9.9112  13.4785

          k =-0.3773 0.3773-0.3773 (   736 PWs)   bands (ev):

    -4.0579   0.3076   5.2958   5.2958   8.1008   9.8215   9.8215  14.1758

          k = 0.5030-0.5030 0.5030 (   718 PWs)   bands (ev):

    -3.3813  -0.7636   5.1827   5.1827   7.9722   9.6961   9.6961  13.9858

          k = 0.0000 0.2515 0.0000 (   713 PWs)   bands (ev):

    -5.5340   5.0950   5.5679   5.5679   8.3616  10.1396  10.1396  10.9857

          k =-0.1258 0.3773-0.1258 (   718 PWs)   bands (ev):

    -5.0495   3.1387   5.0402   5.1316   8.5013  10.1982  10.9151  11.1061

          k =-0.2515 0.5030-0.2515 (   724 PWs)   bands (ev):

    -4.2036   1.0077   4.5219   4.7683   8.6105  10.0796  10.8789  11.8552

          k = 0.6288-0.3773 0.6288 (   722 PWs)   bands (ev):

    -3.2967  -0.5196   4.0599   4.7990   8.5711   9.9113  10.4866  13.8034

          k = 0.5030-0.2515 0.5030 (   722 PWs)   bands (ev):

    -3.5565  -0.1301   3.8656   5.1097   8.7695   9.9991  10.2496  14.3456

          k = 0.3773-0.1258 0.3773 (   728 PWs)   bands (ev):

    -4.5219   1.6910   4.0095   5.6201   9.1623  10.0803  10.2430  12.7548

          k = 0.2515 0.0000 0.2515 (   706 PWs)   bands (ev):

    -5.2575   3.6965   4.7017   6.1175   9.5164   9.5297   9.7592  12.0627

          k = 0.0000 0.5030 0.0000 (   713 PWs)   bands (ev):

    -4.6983   2.8859   4.4483   4.4483   7.4241   9.4439  12.2414  12.2415

          k =-0.1258 0.6288-0.1258 (   722 PWs)   bands (ev):

    -3.9633   1.4172   3.6291   4.1218   7.6448   9.2017  12.4997  12.7424

          k = 0.7545-0.2515 0.7545 (   713 PWs)   bands (ev):

    -2.9964  -0.0876   2.7300   4.1281   7.8035  10.8069  12.2547  12.3623

          k = 0.6288-0.1258 0.6288 (   716 PWs)   bands (ev):

    -2.7769  -0.3634   2.2482   4.4605   8.1478  11.8930  11.9153  13.4318

          k = 0.5030 0.0000 0.5030 (   716 PWs)   bands (ev):

    -3.6978   0.8495   2.4858   5.0422   8.8026  11.2339  11.5465  12.6360

          k = 0.0000 0.7545 0.0000 (   713 PWs)   bands (ev):

    -3.3420   0.6027   3.7104   3.7104   6.8717   7.7883  14.5651  14.5651

          k = 0.8803-0.1258 0.8803 (   722 PWs)   bands (ev):

    -2.4114  -0.5130   2.8218   3.6329   7.1461   8.2630  14.7766  14.8927

          k = 0.7545 0.0000 0.7545 (   718 PWs)   bands (ev):

    -1.9398  -0.9318   1.9002   3.9006   7.4675  10.4905  13.9792  14.7999

          k = 0.0000-1.0060 0.0000 (   740 PWs)   bands (ev):

    -1.5339  -1.5339   3.4577   3.4577   6.9488   6.9488  16.7130  16.7130

          k =-0.2515 0.5030 0.0000 (   723 PWs)   bands (ev):

    -4.4411   2.0737   3.5744   4.9338   8.8029  10.3454  10.5442  11.9673

          k = 0.6288-0.3773 0.8803 (   721 PWs)   bands (ev):

    -3.5169   0.4618   2.9576   4.4037   9.2351   9.9400  11.4281  12.3967

          k = 0.5030-0.2515 0.7545 (   722 PWs)   bands (ev):

    -2.8274  -0.5341   2.8336   4.1609   9.4458   9.4802  12.3759  13.8790

          k = 0.7545-0.2515 1.0060 (   728 PWs)   bands (ev):

    -3.1328   0.3786   2.9003   3.5293   8.2676   8.9475  12.2217  14.5095

          k = 0.6288-0.1258 0.8803 (   719 PWs)   bands (ev):

    -2.2165  -0.6245   2.1611   3.3173   8.7072  10.6339  11.7348  13.9229

          k = 0.5030 0.0000 0.7545 (   720 PWs)   bands (ev):

    -2.5800  -0.2521   1.9839   3.7125   9.2071  10.9382  11.6363  13.4787

          k =-0.2515-1.0060-0.0000 (   722 PWs)   bands (ev):

    -1.4465  -1.4465   2.8413   2.8413   8.2716   8.2716  14.3464  14.3464

          k =-0.5030-1.0060 0.0000 (   724 PWs)   bands (ev):

    -1.3490  -1.3490   2.3708   2.3708  10.6003  10.6003  11.4716  11.4716

     highest occupied, lowest unoccupied level (ev):     6.4129    6.8717

!    total energy              =     -19.25982320 Ry
     estimated scf accuracy    <          6.0E-09 Ry

     The total energy is the sum of the following terms:
     one-electron contribution =       5.33750182 Ry
     hartree contribution      =       1.08245586 Ry
     xc contribution           =      -8.66817165 Ry
     ewald contribution        =     -17.01160923 Ry

     convergence has been achieved in   5 iterations

     Forces acting on atoms (cartesian axes, Ry/au):

     atom    1 type  1   force =     0.00000000    0.00000000    0.00000000
     atom    2 type  1   force =    -0.00000000   -0.00000000   -0.00000000

     Total force =     0.000000     Total SCF correction =     0.000000


     Computing stress (Cartesian axis) and pressure

          total   stress  (Ry/bohr**3)                   (kbar)     P=       21.61
   0.00014693  -0.00000000  -0.00000000           21.61       -0.00       -0.00
  -0.00000000   0.00014693   0.00000000           -0.00       21.61        0.00
  -0.00000000   0.00000000   0.00014693           -0.00        0.00       21.61


     Writing all to output data dir ./Si_elastic.save/
 
     init_run     :      1.25s CPU      1.78s WALL (       1 calls)
     electrons    :      7.95s CPU      9.05s WALL (       1 calls)
     forces       :      0.25s CPU      0.42s WALL (       1 calls)
     stress       :      1.64s CPU      1.71s WALL (       1 calls)

     Called by init_run:
     wfcinit      :      0.27s CPU      0.39s WALL (       1 calls)
     potinit      :      0.03s CPU      0.07s WALL (       1 calls)
     hinit0       :      0.80s CPU      0.96s WALL (       1 calls)

     Called by electrons:
     c_bands      :      5.80s CPU      6.63s WALL (       6 calls)
     sum_band     :      1.50s CPU      1.63s WALL (       6 calls)
     v_of_rho     :      0.09s CPU      0.12s WALL (       6 calls)
     newd         :      0.64s CPU      0.74s WALL (       6 calls)
     mix_rho      :      0.02s CPU      0.02s WALL (       6 calls)

     Called by c_bands:
     init_us_2    :      0.32s CPU      0.36s WALL (     435 calls)
     init_us_2:cp :      0.31s CPU      0.35s WALL (     435 calls)
     ccgdiagg     :      4.77s CPU      5.25s WALL (     174 calls)
     wfcrot       :      1.04s CPU      1.18s WALL (     145 calls)

     Called by *cgdiagg:
     h_psi        :      4.54s CPU      4.94s WALL (    3989 calls)
     s_psi        :      0.41s CPU      0.47s WALL (    7833 calls)

     Called by h_psi:
     h_psi:calbec :      0.38s CPU      0.43s WALL (    3989 calls)
     vloc_psi     :      3.70s CPU      4.01s WALL (    3989 calls)
     add_vuspsi   :      0.26s CPU      0.29s WALL (    3989 calls)
     hs_1psi      :      4.01s CPU      4.38s WALL (    3844 calls)
     s_1psi       :      0.51s CPU      0.57s WALL (    3844 calls)

     General routines
     calbec       :      0.56s CPU      0.64s WALL (    8152 calls)
     fft          :      0.06s CPU      0.08s WALL (      43 calls)
     ffts         :      0.01s CPU      0.01s WALL (      12 calls)
     fftw         :      3.61s CPU      3.89s WALL (   11400 calls)
     interpolate  :      0.01s CPU      0.02s WALL (       6 calls)
 
     Parallel routines
 
     PWSCF        :     11.61s CPU     15.00s WALL

 
   This run was terminated on:  15:22:19   8Mar2022            

=------------------------------------------------------------------------------=
   JOB DONE.
=------------------------------------------------------------------------------=
