
     Program PWSCF v.7.0 starts on  5Mar2022 at 12:11:35 

     This program is part of the open-source Quantum ESPRESSO suite
     for quantum simulation of materials; please cite
         "P. Giannozzi et al., J. Phys.:Condens. Matter 21 395502 (2009);
         "P. Giannozzi et al., J. Phys.:Condens. Matter 29 465901 (2017);
         "P. Giannozzi et al., J. Chem. Phys. 152 154105 (2020);
          URL http://www.quantum-espresso.org", 
     in publications or presentations arising from this work. More details at
     http://www.quantum-espresso.org/quote

     Parallel version (MPI), running on     1 processors

     MPI processes distributed on     1 nodes
     88552 MiB available memory on the printing compute node when the environment starts
 
     Waiting for input...
     Reading input from standard input
Warning: card &CELL ignored
Warning: card  CELL_DYNAMICS = 'BFGS', ignored
Warning: card  PRESS=0.1D0, ignored
Warning: card / ignored

     Current dimensions of program PWSCF are:
     Max number of different atomic species (ntypx) = 10
     Max number of k-points (npk) =  40000
     Max angular momentum in pseudopotentials (lmaxx) =  4

     Subspace diagonalization in iterative solution of the eigenvalue problem:
     a serial algorithm will be used

 
     G-vector sticks info
     --------------------
     sticks:   dense  smooth     PW     G-vecs:    dense   smooth      PW
     Sum         859     859    211                16625    16625    2085
 
     Using Slab Decomposition
 


     bravais-lattice index     =            2
     lattice parameter (alat)  =      10.2000  a.u.
     unit-cell volume          =     265.3020 (a.u.)^3
     number of atoms/cell      =            2
     number of atomic types    =            1
     number of electrons       =         8.00
     number of Kohn-Sham states=            4
     kinetic-energy cutoff     =      60.0000  Ry
     charge density cutoff     =     240.0000  Ry
     scf convergence threshold =      1.0E-08
     mixing beta               =       0.7000
     number of iterations used =            8  plain     mixing
     Exchange-correlation= SLA  PZ   NOGX NOGC
                           (   1   1   0   0   0   0   0)

     celldm(1)=  10.200000  celldm(2)=   0.000000  celldm(3)=   0.000000
     celldm(4)=   0.000000  celldm(5)=   0.000000  celldm(6)=   0.000000

     crystal axes: (cart. coord. in units of alat)
               a(1) = (  -0.500000   0.000000   0.500000 )  
               a(2) = (   0.000000   0.500000   0.500000 )  
               a(3) = (  -0.500000   0.500000   0.000000 )  

     reciprocal axes: (cart. coord. in units 2 pi/alat)
               b(1) = ( -1.000000 -1.000000  1.000000 )  
               b(2) = (  1.000000  1.000000  1.000000 )  
               b(3) = ( -1.000000  1.000000 -1.000000 )  


     PseudoPot. # 1 for Si read from file:
     ./Si_LDA.UPF
     MD5 check sum: b5ade7b37ee992b02096e360e546dc2d
     Pseudo is Ultrasoft + core correction, Zval =  4.0
     Generated by new atomic code, or converted to UPF format
     Using radial grid of  899 points,  6 beta functions with: 
                l(1) =   0
                l(2) =   0
                l(3) =   1
                l(4) =   1
                l(5) =   2
                l(6) =   2
     Q(r) pseudized with  8 coefficients,  rinner =    0.900   0.900   0.900
                                                       0.900   0.900

     atomic species   valence    mass     pseudopotential
        Si             4.00    28.08550     Si( 1.00)

     48 Sym. Ops., with inversion, found (24 have fractional translation)



   Cartesian axes

     site n.     atom                  positions (alat units)
         1           Si  tau(   1) = (   0.0000000   0.0000000   0.0000000  )
         2           Si  tau(   2) = (  -0.2500000   0.2500000   0.2500000  )

     number of k points=     1
                       cart. coord. in units 2pi/alat
        k(    1) = (   0.0000000   0.0000000   0.0000000), wk =   2.0000000

     Dense  grid:    16625 G-vectors     FFT dimensions: (  36,  36,  36)

     Estimated max dynamical RAM per process >      63.62 MB

     Initial potential from superposition of free atoms

     starting charge       7.9988, renormalised to       8.0000
     Starting wfcs are    8 randomized atomic wfcs

     total cpu time spent up to now is        2.5 secs

     Self-consistent Calculation

     iteration #  1     ecut=    60.00 Ry     beta= 0.70
     CG style diagonalization
     ethr =  1.00E-02,  avg # of iterations =  3.0

     total cpu time spent up to now is        2.8 secs

     total energy              =     -17.95385093 Ry
     estimated scf accuracy    <       0.34548431 Ry

     iteration #  2     ecut=    60.00 Ry     beta= 0.70
     CG style diagonalization
     ethr =  4.32E-03,  avg # of iterations =  3.0

     total cpu time spent up to now is        3.1 secs

     total energy              =     -17.97496925 Ry
     estimated scf accuracy    <       0.01000558 Ry

     iteration #  3     ecut=    60.00 Ry     beta= 0.70
     CG style diagonalization
     ethr =  1.25E-04,  avg # of iterations =  3.8

     total cpu time spent up to now is        3.4 secs

     total energy              =     -17.97637075 Ry
     estimated scf accuracy    <       0.00026186 Ry

     iteration #  4     ecut=    60.00 Ry     beta= 0.70
     CG style diagonalization
     ethr =  3.27E-06,  avg # of iterations =  3.5

     total cpu time spent up to now is        3.6 secs

     total energy              =     -17.97653564 Ry
     estimated scf accuracy    <       0.00000989 Ry

     iteration #  5     ecut=    60.00 Ry     beta= 0.70
     CG style diagonalization
     ethr =  1.24E-07,  avg # of iterations =  4.8

     total cpu time spent up to now is        3.9 secs

     total energy              =     -17.97654332 Ry
     estimated scf accuracy    <       0.00000016 Ry

     iteration #  6     ecut=    60.00 Ry     beta= 0.70
     CG style diagonalization
     ethr =  1.97E-09,  avg # of iterations =  5.8

     total cpu time spent up to now is        4.3 secs

     End of self-consistent calculation

          k = 0.0000 0.0000 0.0000 (  2085 PWs)   bands (ev):

    -5.1800   7.2102   7.2102   7.2102

     highest occupied level (ev):     7.2102

!    total energy              =     -17.97654358 Ry
     estimated scf accuracy    <          3.4E-09 Ry

     The total energy is the sum of the following terms:
     one-electron contribution =       6.14725130 Ry
     hartree contribution      =       1.67582179 Ry
     xc contribution           =      -8.89985810 Ry
     ewald contribution        =     -16.89975857 Ry

     convergence has been achieved in   6 iterations

     Forces acting on atoms (cartesian axes, Ry/au):

     atom    1 type  1   force =    -0.00000000    0.00000000   -0.00000000
     atom    2 type  1   force =     0.00000000   -0.00000000    0.00000000

     Total force =     0.000000     Total SCF correction =     0.000000


     Computing stress (Cartesian axis) and pressure

          total   stress  (Ry/bohr**3)                   (kbar)     P=      428.77
   0.00291472  -0.00000000   0.00000000          428.77       -0.00        0.00
  -0.00000000   0.00291472  -0.00000000           -0.00      428.77       -0.00
   0.00000000  -0.00000000   0.00291472            0.00       -0.00      428.77


     Writing all to output data dir ./Si.save/
 
     init_run     :      0.99s CPU      1.32s WALL (       1 calls)
     electrons    :      1.55s CPU      1.85s WALL (       1 calls)
     forces       :      0.14s CPU      0.21s WALL (       1 calls)
     stress       :      0.96s CPU      1.01s WALL (       1 calls)

     Called by init_run:
     wfcinit      :      0.03s CPU      0.12s WALL (       1 calls)
     potinit      :      0.02s CPU      0.06s WALL (       1 calls)
     hinit0       :      0.84s CPU      0.92s WALL (       1 calls)

     Called by electrons:
     c_bands      :      0.34s CPU      0.41s WALL (       6 calls)
     sum_band     :      0.65s CPU      0.73s WALL (       6 calls)
     v_of_rho     :      0.08s CPU      0.10s WALL (       7 calls)
     newd         :      0.54s CPU      0.64s WALL (       7 calls)
     mix_rho      :      0.02s CPU      0.03s WALL (       6 calls)

     Called by c_bands:
     init_us_2    :      0.03s CPU      0.03s WALL (      13 calls)
     init_us_2:cp :      0.03s CPU      0.03s WALL (      13 calls)
     ccgdiagg     :      0.27s CPU      0.30s WALL (       6 calls)
     wfcrot       :      0.08s CPU      0.16s WALL (       6 calls)

     Called by *cgdiagg:
     h_psi        :      0.27s CPU      0.31s WALL (      81 calls)
     s_psi        :      0.03s CPU      0.05s WALL (     156 calls)

     Called by h_psi:
     h_psi:calbec :      0.02s CPU      0.04s WALL (      81 calls)
     vloc_psi     :      0.23s CPU      0.24s WALL (      81 calls)
     add_vuspsi   :      0.02s CPU      0.02s WALL (      81 calls)
     hs_1psi      :      0.23s CPU      0.24s WALL (      75 calls)
     s_1psi       :      0.04s CPU      0.04s WALL (      75 calls)

     General routines
     calbec       :      0.04s CPU      0.05s WALL (     167 calls)
     fft          :      0.04s CPU      0.07s WALL (      36 calls)
     ffts         :      0.01s CPU      0.01s WALL (       6 calls)
     fftw         :      0.22s CPU      0.23s WALL (     230 calls)
 
     Parallel routines
 
     PWSCF        :      4.16s CPU      5.80s WALL

 
   This run was terminated on:  12:11:40   5Mar2022            

=------------------------------------------------------------------------------=
   JOB DONE.
=------------------------------------------------------------------------------=
