
     Program PWSCF v.7.0 starts on  5Mar2022 at 12:13:33 

     This program is part of the open-source Quantum ESPRESSO suite
     for quantum simulation of materials; please cite
         "P. Giannozzi et al., J. Phys.:Condens. Matter 21 395502 (2009);
         "P. Giannozzi et al., J. Phys.:Condens. Matter 29 465901 (2017);
         "P. Giannozzi et al., J. Chem. Phys. 152 154105 (2020);
          URL http://www.quantum-espresso.org", 
     in publications or presentations arising from this work. More details at
     http://www.quantum-espresso.org/quote

     Parallel version (MPI), running on     1 processors

     MPI processes distributed on     1 nodes
     88504 MiB available memory on the printing compute node when the environment starts
 
     Waiting for input...
     Reading input from standard input
Warning: card &CELL ignored
Warning: card  CELL_DYNAMICS = 'BFGS', ignored
Warning: card  PRESS=0.1D0, ignored
Warning: card / ignored

     Current dimensions of program PWSCF are:
     Max number of different atomic species (ntypx) = 10
     Max number of k-points (npk) =  40000
     Max angular momentum in pseudopotentials (lmaxx) =  4

     Subspace diagonalization in iterative solution of the eigenvalue problem:
     a serial algorithm will be used

 
     G-vector sticks info
     --------------------
     sticks:   dense  smooth     PW     G-vecs:    dense   smooth      PW
     Sum         859     859    253                16625    16625    2741
 
     Using Slab Decomposition
 


     bravais-lattice index     =            2
     lattice parameter (alat)  =      10.2000  a.u.
     unit-cell volume          =     265.3020 (a.u.)^3
     number of atoms/cell      =            2
     number of atomic types    =            1
     number of electrons       =         8.00
     number of Kohn-Sham states=            4
     kinetic-energy cutoff     =      60.0000  Ry
     charge density cutoff     =     240.0000  Ry
     scf convergence threshold =      1.0E-08
     mixing beta               =       0.7000
     number of iterations used =            8  plain     mixing
     Exchange-correlation= SLA  PZ   NOGX NOGC
                           (   1   1   0   0   0   0   0)

     celldm(1)=  10.200000  celldm(2)=   0.000000  celldm(3)=   0.000000
     celldm(4)=   0.000000  celldm(5)=   0.000000  celldm(6)=   0.000000

     crystal axes: (cart. coord. in units of alat)
               a(1) = (  -0.500000   0.000000   0.500000 )  
               a(2) = (   0.000000   0.500000   0.500000 )  
               a(3) = (  -0.500000   0.500000   0.000000 )  

     reciprocal axes: (cart. coord. in units 2 pi/alat)
               b(1) = ( -1.000000 -1.000000  1.000000 )  
               b(2) = (  1.000000  1.000000  1.000000 )  
               b(3) = ( -1.000000  1.000000 -1.000000 )  


     PseudoPot. # 1 for Si read from file:
     ./Si_LDA.UPF
     MD5 check sum: b5ade7b37ee992b02096e360e546dc2d
     Pseudo is Ultrasoft + core correction, Zval =  4.0
     Generated by new atomic code, or converted to UPF format
     Using radial grid of  899 points,  6 beta functions with: 
                l(1) =   0
                l(2) =   0
                l(3) =   1
                l(4) =   1
                l(5) =   2
                l(6) =   2
     Q(r) pseudized with  8 coefficients,  rinner =    0.900   0.900   0.900
                                                       0.900   0.900

     atomic species   valence    mass     pseudopotential
        Si             4.00    28.08550     Si( 1.00)

     48 Sym. Ops., with inversion, found (24 have fractional translation)



   Cartesian axes

     site n.     atom                  positions (alat units)
         1           Si  tau(   1) = (   0.0000000   0.0000000   0.0000000  )
         2           Si  tau(   2) = (  -0.2500000   0.2500000   0.2500000  )

     number of k points=    47
                       cart. coord. in units 2pi/alat
        k(    1) = (   0.0000000   0.0000000   0.0000000), wk =   0.0020000
        k(    2) = (  -0.1000000   0.1000000  -0.1000000), wk =   0.0160000
        k(    3) = (  -0.2000000   0.2000000  -0.2000000), wk =   0.0160000
        k(    4) = (  -0.3000000   0.3000000  -0.3000000), wk =   0.0160000
        k(    5) = (  -0.4000000   0.4000000  -0.4000000), wk =   0.0160000
        k(    6) = (   0.5000000  -0.5000000   0.5000000), wk =   0.0080000
        k(    7) = (   0.0000000   0.2000000   0.0000000), wk =   0.0120000
        k(    8) = (  -0.1000000   0.3000000  -0.1000000), wk =   0.0480000
        k(    9) = (  -0.2000000   0.4000000  -0.2000000), wk =   0.0480000
        k(   10) = (  -0.3000000   0.5000000  -0.3000000), wk =   0.0480000
        k(   11) = (   0.6000000  -0.4000000   0.6000000), wk =   0.0480000
        k(   12) = (   0.5000000  -0.3000000   0.5000000), wk =   0.0480000
        k(   13) = (   0.4000000  -0.2000000   0.4000000), wk =   0.0480000
        k(   14) = (   0.3000000  -0.1000000   0.3000000), wk =   0.0480000
        k(   15) = (   0.2000000   0.0000000   0.2000000), wk =   0.0240000
        k(   16) = (   0.0000000   0.4000000   0.0000000), wk =   0.0120000
        k(   17) = (  -0.1000000   0.5000000  -0.1000000), wk =   0.0480000
        k(   18) = (  -0.2000000   0.6000000  -0.2000000), wk =   0.0480000
        k(   19) = (   0.7000000  -0.3000000   0.7000000), wk =   0.0480000
        k(   20) = (   0.6000000  -0.2000000   0.6000000), wk =   0.0480000
        k(   21) = (   0.5000000  -0.1000000   0.5000000), wk =   0.0480000
        k(   22) = (   0.4000000   0.0000000   0.4000000), wk =   0.0240000
        k(   23) = (  -0.0000000   0.6000000  -0.0000000), wk =   0.0120000
        k(   24) = (  -0.1000000   0.7000000  -0.1000000), wk =   0.0480000
        k(   25) = (   0.8000000  -0.2000000   0.8000000), wk =   0.0480000
        k(   26) = (   0.7000000  -0.1000000   0.7000000), wk =   0.0480000
        k(   27) = (   0.6000000   0.0000000   0.6000000), wk =   0.0240000
        k(   28) = (   0.0000000   0.8000000   0.0000000), wk =   0.0120000
        k(   29) = (   0.9000000  -0.1000000   0.9000000), wk =   0.0480000
        k(   30) = (   0.8000000   0.0000000   0.8000000), wk =   0.0240000
        k(   31) = (   0.0000000  -1.0000000   0.0000000), wk =   0.0060000
        k(   32) = (  -0.2000000   0.4000000   0.0000000), wk =   0.0480000
        k(   33) = (  -0.3000000   0.5000000  -0.1000000), wk =   0.0960000
        k(   34) = (   0.6000000  -0.4000000   0.8000000), wk =   0.0960000
        k(   35) = (   0.5000000  -0.3000000   0.7000000), wk =   0.0480000
        k(   36) = (  -0.2000000   0.6000000   0.0000000), wk =   0.0480000
        k(   37) = (   0.7000000  -0.3000000   0.9000000), wk =   0.0960000
        k(   38) = (   0.6000000  -0.2000000   0.8000000), wk =   0.0960000
        k(   39) = (   0.5000000  -0.1000000   0.7000000), wk =   0.0960000
        k(   40) = (   0.4000000   0.0000000   0.6000000), wk =   0.0480000
        k(   41) = (   0.8000000  -0.2000000   1.0000000), wk =   0.0480000
        k(   42) = (   0.7000000  -0.1000000   0.9000000), wk =   0.0960000
        k(   43) = (   0.6000000   0.0000000   0.8000000), wk =   0.0480000
        k(   44) = (  -0.2000000  -1.0000000  -0.0000000), wk =   0.0240000
        k(   45) = (   0.6000000  -0.2000000   1.0000000), wk =   0.0480000
        k(   46) = (   0.5000000  -0.1000000   0.9000000), wk =   0.0480000
        k(   47) = (  -0.4000000  -1.0000000  -0.0000000), wk =   0.0240000

     Dense  grid:    16625 G-vectors     FFT dimensions: (  36,  36,  36)

     Estimated max dynamical RAM per process >      69.59 MB

     Initial potential from superposition of free atoms

     starting charge       7.9988, renormalised to       8.0000
     Starting wfcs are    8 randomized atomic wfcs

     total cpu time spent up to now is        2.9 secs

     Self-consistent Calculation

     iteration #  1     ecut=    60.00 Ry     beta= 0.70
     CG style diagonalization
     ethr =  1.00E-02,  avg # of iterations =  3.0

     Threshold (ethr) on eigenvalues was too large:
     Diagonalizing with lowered threshold

     CG style diagonalization
     ethr =  7.37E-04,  avg # of iterations =  2.0

     total cpu time spent up to now is        7.8 secs

     total energy              =     -19.25699403 Ry
     estimated scf accuracy    <       0.05929591 Ry

     iteration #  2     ecut=    60.00 Ry     beta= 0.70
     CG style diagonalization
     ethr =  7.41E-04,  avg # of iterations =  3.0

     total cpu time spent up to now is       10.6 secs

     total energy              =     -19.25996983 Ry
     estimated scf accuracy    <       0.00197439 Ry

     iteration #  3     ecut=    60.00 Ry     beta= 0.70
     CG style diagonalization
     ethr =  2.47E-05,  avg # of iterations =  4.1

     total cpu time spent up to now is       14.1 secs

     total energy              =     -19.26056995 Ry
     estimated scf accuracy    <       0.00006806 Ry

     iteration #  4     ecut=    60.00 Ry     beta= 0.70
     CG style diagonalization
     ethr =  8.51E-07,  avg # of iterations =  4.3

     total cpu time spent up to now is       17.7 secs

     total energy              =     -19.26060497 Ry
     estimated scf accuracy    <       0.00001385 Ry

     iteration #  5     ecut=    60.00 Ry     beta= 0.70
     CG style diagonalization
     ethr =  1.73E-07,  avg # of iterations =  3.9

     total cpu time spent up to now is       21.1 secs

     total energy              =     -19.26060773 Ry
     estimated scf accuracy    <       0.00000005 Ry

     iteration #  6     ecut=    60.00 Ry     beta= 0.70
     CG style diagonalization
     ethr =  6.54E-10,  avg # of iterations =  5.7

     total cpu time spent up to now is       25.8 secs

     End of self-consistent calculation

          k = 0.0000 0.0000 0.0000 (  2085 PWs)   bands (ev):

    -5.8900   6.1998   6.1998   6.1998

          k =-0.1000 0.1000-0.1000 (  2079 PWs)   bands (ev):

    -5.7570   5.0381   5.9970   5.9970

          k =-0.2000 0.2000-0.2000 (  2079 PWs)   bands (ev):

    -5.3643   3.1503   5.6105   5.6105

          k =-0.3000 0.3000-0.3000 (  2072 PWs)   bands (ev):

    -4.7378   1.3383   5.2725   5.2725

          k =-0.4000 0.4000-0.4000 (  2078 PWs)   bands (ev):

    -3.9737  -0.1640   5.0591   5.0591

          k = 0.5000-0.5000 0.5000 (  2060 PWs)   bands (ev):

    -3.5070  -0.8803   4.9873   4.9873

          k = 0.0000 0.2000 0.0000 (  2073 PWs)   bands (ev):

    -5.7124   5.2604   5.6083   5.6083

          k =-0.1000 0.3000-0.1000 (  2072 PWs)   bands (ev):

    -5.4051   3.7233   5.1660   5.3432

          k =-0.2000 0.4000-0.2000 (  2073 PWs)   bands (ev):

    -4.8522   1.9357   4.8440   4.9016

          k =-0.3000 0.5000-0.3000 (  2081 PWs)   bands (ev):

    -4.1134   0.3355   4.4833   4.6970

          k = 0.6000-0.4000 0.6000 (  2076 PWs)   bands (ev):

    -3.4536  -0.7262   4.1875   4.7332

          k = 0.5000-0.3000 0.5000 (  2077 PWs)   bands (ev):

    -3.6267  -0.4704   4.0548   4.9381

          k = 0.4000-0.2000 0.4000 (  2075 PWs)   bands (ev):

    -4.3744   0.8385   4.1122   5.2791

          k = 0.3000-0.1000 0.3000 (  2075 PWs)   bands (ev):

    -5.0632   2.5154   4.3875   5.6919

          k = 0.2000 0.0000 0.2000 (  2071 PWs)   bands (ev):

    -5.5370   4.1504   5.0053   6.0236

          k = 0.0000 0.4000 0.0000 (  2073 PWs)   bands (ev):

    -5.1837   3.5690   4.6808   4.6808

          k =-0.1000 0.5000-0.1000 (  2065 PWs)   bands (ev):

    -4.7103   2.3038   4.1611   4.3280

          k =-0.2000 0.6000-0.2000 (  2072 PWs)   bands (ev):

    -4.0224   0.8397   3.5186   4.1675

          k = 0.7000-0.3000 0.7000 (  2078 PWs)   bands (ev):

    -3.2731  -0.3720   2.9987   4.2142

          k = 0.6000-0.2000 0.6000 (  2092 PWs)   bands (ev):

    -3.1142  -0.5874   2.6922   4.4582

          k = 0.5000-0.1000 0.5000 (  2084 PWs)   bands (ev):

    -3.7862   0.4252   2.6649   4.8641

          k = 0.4000 0.0000 0.4000 (  2085 PWs)   bands (ev):

    -4.5186   1.6867   3.1205   5.3444

          k =-0.0000 0.6000-0.0000 (  2060 PWs)   bands (ev):

    -4.3165   1.7635   3.9287   3.9287

          k =-0.1000 0.7000-0.1000 (  2086 PWs)   bands (ev):

    -3.6933   0.7460   3.2785   3.7215

          k = 0.8000-0.2000 0.8000 (  2097 PWs)   bands (ev):

    -2.9274  -0.2769   2.4217   3.7294

          k = 0.7000-0.1000 0.7000 (  2090 PWs)   bands (ev):

    -2.4935  -0.7669   1.8517   3.9496

          k = 0.6000 0.0000 0.6000 (  2095 PWs)   bands (ev):

    -3.0447  -0.1662   1.8232   4.3540

          k = 0.0000 0.8000 0.0000 (  2084 PWs)   bands (ev):

    -3.1353  -0.0191   3.4575   3.4575

          k = 0.9000-0.1000 0.9000 (  2091 PWs)   bands (ev):

    -2.3937  -0.8700   2.8438   3.4086

          k = 0.8000 0.0000 0.8000 (  2097 PWs)   bands (ev):

    -1.9015  -1.3002   2.0285   3.5791

          k = 0.0000-1.0000 0.0000 (  2100 PWs)   bands (ev):

    -1.6813  -1.6813   3.2978   3.2978

          k =-0.2000 0.4000 0.0000 (  2075 PWs)   bands (ev):

    -5.0154   2.8009   4.0645   5.2134

          k =-0.3000 0.5000-0.1000 (  2081 PWs)   bands (ev):

    -4.3930   1.3689   3.4685   4.8289

          k = 0.6000-0.4000 0.8000 (  2072 PWs)   bands (ev):

    -3.6296  -0.0223   3.2388   4.4700

          k = 0.5000-0.3000 0.7000 (  2084 PWs)   bands (ev):

    -3.1557  -0.7187   3.1802   4.3286

          k =-0.2000 0.6000 0.0000 (  2078 PWs)   bands (ev):

    -4.1635   1.3995   3.3246   4.0709

          k = 0.7000-0.3000 0.9000 (  2080 PWs)   bands (ev):

    -3.4292   0.2802   2.6915   3.7308

          k = 0.6000-0.2000 0.8000 (  2086 PWs)   bands (ev):

    -2.7613  -0.6051   2.2748   3.6736

          k = 0.5000-0.1000 0.7000 (  2084 PWs)   bands (ev):

    -2.9680  -0.3387   2.1172   3.9201

          k = 0.4000 0.0000 0.6000 (  2089 PWs)   bands (ev):

    -3.7205   0.6296   2.4202   4.3724

          k = 0.8000-0.2000 1.0000 (  2079 PWs)   bands (ev):

    -3.0134  -0.1039   2.9067   3.2420

          k = 0.7000-0.1000 0.9000 (  2097 PWs)   bands (ev):

    -2.2588  -0.8891   2.1770   3.1481

          k = 0.6000 0.0000 0.8000 (  2099 PWs)   bands (ev):

    -2.2591  -0.8663   1.7467   3.4244

          k =-0.2000-1.0000-0.0000 (  2094 PWs)   bands (ev):

    -1.6248  -1.6248   2.8635   2.8635

          k = 0.6000-0.2000 1.0000 (  2077 PWs)   bands (ev):

    -2.6826  -0.4061   2.1175   3.1307

          k = 0.5000-0.1000 0.9000 (  2096 PWs)   bands (ev):

    -2.1589  -0.9237   1.9541   2.8717

          k =-0.4000-1.0000-0.0000 (  2102 PWs)   bands (ev):

    -1.5245  -1.5245   2.3250   2.3250

     highest occupied level (ev):     6.1998

!    total energy              =     -19.26060791 Ry
     estimated scf accuracy    <          2.7E-09 Ry

     The total energy is the sum of the following terms:
     one-electron contribution =       5.18343156 Ry
     hartree contribution      =       1.09855545 Ry
     xc contribution           =      -8.64283635 Ry
     ewald contribution        =     -16.89975857 Ry

     convergence has been achieved in   6 iterations

     Forces acting on atoms (cartesian axes, Ry/au):

     atom    1 type  1   force =    -0.00000000    0.00000000    0.00000000
     atom    2 type  1   force =     0.00000000    0.00000000   -0.00000000

     Total force =     0.000000     Total SCF correction =     0.000000


     Computing stress (Cartesian axis) and pressure

          total   stress  (Ry/bohr**3)                   (kbar)     P=        1.46
   0.00000993   0.00000000  -0.00000000            1.46        0.00       -0.00
   0.00000000   0.00000993   0.00000000            0.00        1.46        0.00
   0.00000000  -0.00000000   0.00000993            0.00       -0.00        1.46


     Writing all to output data dir ./Si.save/
 
     init_run     :      2.19s CPU      2.27s WALL (       1 calls)
     electrons    :     21.09s CPU     22.95s WALL (       1 calls)
     forces       :      0.34s CPU      0.37s WALL (       1 calls)
     stress       :      2.48s CPU      2.51s WALL (       1 calls)

     Called by init_run:
     wfcinit      :      1.22s CPU      1.26s WALL (       1 calls)
     potinit      :      0.01s CPU      0.02s WALL (       1 calls)
     hinit0       :      0.82s CPU      0.84s WALL (       1 calls)

     Called by electrons:
     c_bands      :     17.47s CPU     19.09s WALL (       7 calls)
     sum_band     :      3.05s CPU      3.20s WALL (       7 calls)
     v_of_rho     :      0.08s CPU      0.08s WALL (       7 calls)
     newd         :      0.54s CPU      0.61s WALL (       7 calls)
     mix_rho      :      0.02s CPU      0.03s WALL (       7 calls)

     Called by c_bands:
     init_us_2    :      1.68s CPU      1.75s WALL (     799 calls)
     init_us_2:cp :      1.66s CPU      1.74s WALL (     799 calls)
     ccgdiagg     :     14.01s CPU     15.02s WALL (     329 calls)
     wfcrot       :      3.60s CPU      3.74s WALL (     282 calls)

     Called by *cgdiagg:
     h_psi        :     13.88s CPU     14.53s WALL (    4247 calls)
     s_psi        :      1.69s CPU      2.00s WALL (    8212 calls)

     Called by h_psi:
     h_psi:calbec :      1.08s CPU      1.15s WALL (    4247 calls)
     vloc_psi     :     11.53s CPU     12.00s WALL (    4247 calls)
     add_vuspsi   :      0.97s CPU      1.11s WALL (    4247 calls)
     hs_1psi      :     11.70s CPU     12.38s WALL (    3965 calls)
     s_1psi       :      1.77s CPU      2.00s WALL (    3965 calls)

     General routines
     calbec       :      1.90s CPU      2.17s WALL (    8776 calls)
     fft          :      0.04s CPU      0.04s WALL (      37 calls)
     ffts         :      0.01s CPU      0.01s WALL (       7 calls)
     fftw         :     10.92s CPU     11.33s WALL (   11878 calls)
 
     Parallel routines
 
     PWSCF        :     26.66s CPU     29.19s WALL

 
   This run was terminated on:  12:14: 2   5Mar2022            

=------------------------------------------------------------------------------=
   JOB DONE.
=------------------------------------------------------------------------------=
