
     Program PWSCF v.7.0 starts on  5Mar2022 at 12:12:48 

     This program is part of the open-source Quantum ESPRESSO suite
     for quantum simulation of materials; please cite
         "P. Giannozzi et al., J. Phys.:Condens. Matter 21 395502 (2009);
         "P. Giannozzi et al., J. Phys.:Condens. Matter 29 465901 (2017);
         "P. Giannozzi et al., J. Chem. Phys. 152 154105 (2020);
          URL http://www.quantum-espresso.org", 
     in publications or presentations arising from this work. More details at
     http://www.quantum-espresso.org/quote

     Parallel version (MPI), running on     1 processors

     MPI processes distributed on     1 nodes
     88509 MiB available memory on the printing compute node when the environment starts
 
     Waiting for input...
     Reading input from standard input
Warning: card &CELL ignored
Warning: card  CELL_DYNAMICS = 'BFGS', ignored
Warning: card  PRESS=0.1D0, ignored
Warning: card / ignored

     Current dimensions of program PWSCF are:
     Max number of different atomic species (ntypx) = 10
     Max number of k-points (npk) =  40000
     Max angular momentum in pseudopotentials (lmaxx) =  4

     Subspace diagonalization in iterative solution of the eigenvalue problem:
     a serial algorithm will be used

 
     G-vector sticks info
     --------------------
     sticks:   dense  smooth     PW     G-vecs:    dense   smooth      PW
     Sum         859     859    253                16625    16625    2733
 
     Using Slab Decomposition
 


     bravais-lattice index     =            2
     lattice parameter (alat)  =      10.2000  a.u.
     unit-cell volume          =     265.3020 (a.u.)^3
     number of atoms/cell      =            2
     number of atomic types    =            1
     number of electrons       =         8.00
     number of Kohn-Sham states=            4
     kinetic-energy cutoff     =      60.0000  Ry
     charge density cutoff     =     240.0000  Ry
     scf convergence threshold =      1.0E-08
     mixing beta               =       0.7000
     number of iterations used =            8  plain     mixing
     Exchange-correlation= SLA  PZ   NOGX NOGC
                           (   1   1   0   0   0   0   0)

     celldm(1)=  10.200000  celldm(2)=   0.000000  celldm(3)=   0.000000
     celldm(4)=   0.000000  celldm(5)=   0.000000  celldm(6)=   0.000000

     crystal axes: (cart. coord. in units of alat)
               a(1) = (  -0.500000   0.000000   0.500000 )  
               a(2) = (   0.000000   0.500000   0.500000 )  
               a(3) = (  -0.500000   0.500000   0.000000 )  

     reciprocal axes: (cart. coord. in units 2 pi/alat)
               b(1) = ( -1.000000 -1.000000  1.000000 )  
               b(2) = (  1.000000  1.000000  1.000000 )  
               b(3) = ( -1.000000  1.000000 -1.000000 )  


     PseudoPot. # 1 for Si read from file:
     ./Si_LDA.UPF
     MD5 check sum: b5ade7b37ee992b02096e360e546dc2d
     Pseudo is Ultrasoft + core correction, Zval =  4.0
     Generated by new atomic code, or converted to UPF format
     Using radial grid of  899 points,  6 beta functions with: 
                l(1) =   0
                l(2) =   0
                l(3) =   1
                l(4) =   1
                l(5) =   2
                l(6) =   2
     Q(r) pseudized with  8 coefficients,  rinner =    0.900   0.900   0.900
                                                       0.900   0.900

     atomic species   valence    mass     pseudopotential
        Si             4.00    28.08550     Si( 1.00)

     48 Sym. Ops., with inversion, found (24 have fractional translation)



   Cartesian axes

     site n.     atom                  positions (alat units)
         1           Si  tau(   1) = (   0.0000000   0.0000000   0.0000000  )
         2           Si  tau(   2) = (  -0.2500000   0.2500000   0.2500000  )

     number of k points=    29
                       cart. coord. in units 2pi/alat
        k(    1) = (   0.0000000   0.0000000   0.0000000), wk =   0.0039062
        k(    2) = (  -0.1250000   0.1250000  -0.1250000), wk =   0.0312500
        k(    3) = (  -0.2500000   0.2500000  -0.2500000), wk =   0.0312500
        k(    4) = (  -0.3750000   0.3750000  -0.3750000), wk =   0.0312500
        k(    5) = (   0.5000000  -0.5000000   0.5000000), wk =   0.0156250
        k(    6) = (   0.0000000   0.2500000   0.0000000), wk =   0.0234375
        k(    7) = (  -0.1250000   0.3750000  -0.1250000), wk =   0.0937500
        k(    8) = (  -0.2500000   0.5000000  -0.2500000), wk =   0.0937500
        k(    9) = (   0.6250000  -0.3750000   0.6250000), wk =   0.0937500
        k(   10) = (   0.5000000  -0.2500000   0.5000000), wk =   0.0937500
        k(   11) = (   0.3750000  -0.1250000   0.3750000), wk =   0.0937500
        k(   12) = (   0.2500000   0.0000000   0.2500000), wk =   0.0468750
        k(   13) = (   0.0000000   0.5000000   0.0000000), wk =   0.0234375
        k(   14) = (  -0.1250000   0.6250000  -0.1250000), wk =   0.0937500
        k(   15) = (   0.7500000  -0.2500000   0.7500000), wk =   0.0937500
        k(   16) = (   0.6250000  -0.1250000   0.6250000), wk =   0.0937500
        k(   17) = (   0.5000000   0.0000000   0.5000000), wk =   0.0468750
        k(   18) = (   0.0000000   0.7500000   0.0000000), wk =   0.0234375
        k(   19) = (   0.8750000  -0.1250000   0.8750000), wk =   0.0937500
        k(   20) = (   0.7500000   0.0000000   0.7500000), wk =   0.0468750
        k(   21) = (   0.0000000  -1.0000000   0.0000000), wk =   0.0117188
        k(   22) = (  -0.2500000   0.5000000   0.0000000), wk =   0.0937500
        k(   23) = (   0.6250000  -0.3750000   0.8750000), wk =   0.1875000
        k(   24) = (   0.5000000  -0.2500000   0.7500000), wk =   0.0937500
        k(   25) = (   0.7500000  -0.2500000   1.0000000), wk =   0.0937500
        k(   26) = (   0.6250000  -0.1250000   0.8750000), wk =   0.1875000
        k(   27) = (   0.5000000   0.0000000   0.7500000), wk =   0.0937500
        k(   28) = (  -0.2500000  -1.0000000   0.0000000), wk =   0.0468750
        k(   29) = (  -0.5000000  -1.0000000   0.0000000), wk =   0.0234375

     Dense  grid:    16625 G-vectors     FFT dimensions: (  36,  36,  36)

     Estimated max dynamical RAM per process >      67.31 MB

     Initial potential from superposition of free atoms

     starting charge       7.9988, renormalised to       8.0000
     Starting wfcs are    8 randomized atomic wfcs

     total cpu time spent up to now is        2.4 secs

     Self-consistent Calculation

     iteration #  1     ecut=    60.00 Ry     beta= 0.70
     CG style diagonalization
     ethr =  1.00E-02,  avg # of iterations =  3.0

     Threshold (ethr) on eigenvalues was too large:
     Diagonalizing with lowered threshold

     CG style diagonalization
     ethr =  7.38E-04,  avg # of iterations =  2.0

     total cpu time spent up to now is        5.6 secs

     total energy              =     -19.25675269 Ry
     estimated scf accuracy    <       0.05947816 Ry

     iteration #  2     ecut=    60.00 Ry     beta= 0.70
     CG style diagonalization
     ethr =  7.43E-04,  avg # of iterations =  3.0

     total cpu time spent up to now is        7.4 secs

     total energy              =     -19.25973287 Ry
     estimated scf accuracy    <       0.00198064 Ry

     iteration #  3     ecut=    60.00 Ry     beta= 0.70
     CG style diagonalization
     ethr =  2.48E-05,  avg # of iterations =  4.0

     total cpu time spent up to now is        9.6 secs

     total energy              =     -19.26030881 Ry
     estimated scf accuracy    <       0.00006922 Ry

     iteration #  4     ecut=    60.00 Ry     beta= 0.70
     CG style diagonalization
     ethr =  8.65E-07,  avg # of iterations =  4.3

     total cpu time spent up to now is       11.9 secs

     total energy              =     -19.26034541 Ry
     estimated scf accuracy    <       0.00001450 Ry

     iteration #  5     ecut=    60.00 Ry     beta= 0.70
     CG style diagonalization
     ethr =  1.81E-07,  avg # of iterations =  4.0

     total cpu time spent up to now is       14.1 secs

     total energy              =     -19.26034835 Ry
     estimated scf accuracy    <       0.00000006 Ry

     iteration #  6     ecut=    60.00 Ry     beta= 0.70
     CG style diagonalization
     ethr =  7.60E-10,  avg # of iterations =  5.7

     total cpu time spent up to now is       17.0 secs

     End of self-consistent calculation

          k = 0.0000 0.0000 0.0000 (  2085 PWs)   bands (ev):

    -5.8889   6.2013   6.2013   6.2013

          k =-0.1250 0.1250-0.1250 (  2079 PWs)   bands (ev):

    -5.6816   4.5801   5.9063   5.9063

          k =-0.2500 0.2500-0.2500 (  2067 PWs)   bands (ev):

    -5.0760   2.2203   5.4298   5.4298

          k =-0.3750 0.3750-0.3750 (  2072 PWs)   bands (ev):

    -4.1639   0.1680   5.1008   5.1008

          k = 0.5000-0.5000 0.5000 (  2060 PWs)   bands (ev):

    -3.5057  -0.8794   4.9886   4.9886

          k = 0.0000 0.2500 0.0000 (  2077 PWs)   bands (ev):

    -5.6118   4.8654   5.3749   5.3749

          k =-0.1250 0.3750-0.1250 (  2065 PWs)   bands (ev):

    -5.1355   2.9445   4.8557   4.9339

          k =-0.2500 0.5000-0.2500 (  2072 PWs)   bands (ev):

    -4.3054   0.8499   4.3316   4.5864

          k = 0.6250-0.3750 0.6250 (  2080 PWs)   bands (ev):

    -3.4207  -0.6456   3.8778   4.6146

          k = 0.5000-0.2500 0.5000 (  2083 PWs)   bands (ev):

    -3.6731  -0.2653   3.6899   4.9184

          k = 0.3750-0.1250 0.3750 (  2078 PWs)   bands (ev):

    -4.6176   1.5209   3.8375   5.4192

          k = 0.2500 0.0000 0.2500 (  2067 PWs)   bands (ev):

    -5.3400   3.4933   4.5264   5.9080

          k = 0.0000 0.5000 0.0000 (  2045 PWs)   bands (ev):

    -4.7901   2.6710   4.2743   4.2743

          k =-0.1250 0.6250-0.1250 (  2079 PWs)   bands (ev):

    -4.0681   1.2282   3.4685   3.9525

          k = 0.7500-0.2500 0.7500 (  2081 PWs)   bands (ev):

    -3.1217  -0.2436   2.5834   3.9576

          k = 0.6250-0.1250 0.6250 (  2088 PWs)   bands (ev):

    -2.9094  -0.5109   2.1122   4.2831

          k = 0.5000 0.0000 0.5000 (  2085 PWs)   bands (ev):

    -3.8092   0.6753   2.3512   4.8533

          k = 0.0000 0.7500 0.0000 (  2084 PWs)   bands (ev):

    -3.4569   0.4204   3.5478   3.5478

          k = 0.8750-0.1250 0.8750 (  2089 PWs)   bands (ev):

    -2.5437  -0.6777   2.6821   3.4712

          k = 0.7500 0.0000 0.7500 (  2085 PWs)   bands (ev):

    -2.0877  -1.0853   1.7834   3.7339

          k = 0.0000-1.0000 0.0000 (  2100 PWs)   bands (ev):

    -1.6801  -1.6801   3.2989   3.2989

          k =-0.2500 0.5000 0.0000 (  2074 PWs)   bands (ev):

    -4.5378   1.8809   3.4187   4.7466

          k = 0.6250-0.3750 0.8750 (  2080 PWs)   bands (ev):

    -3.6318   0.3007   2.8043   4.2302

          k = 0.5000-0.2500 0.7500 (  2092 PWs)   bands (ev):

    -2.9603  -0.6701   2.6775   3.9939

          k = 0.7500-0.2500 1.0000 (  2085 PWs)   bands (ev):

    -3.2529   0.1997   2.7572   3.3765

          k = 0.6250-0.1250 0.8750 (  2092 PWs)   bands (ev):

    -2.3574  -0.7844   2.0352   3.1689

          k = 0.5000 0.0000 0.7500 (  2091 PWs)   bands (ev):

    -2.7140  -0.4173   1.8624   3.5551

          k =-0.2500-1.0000 0.0000 (  2098 PWs)   bands (ev):

    -1.5969  -1.5969   2.7015   2.7015

          k =-0.5000-1.0000 0.0000 (  2120 PWs)   bands (ev):

    -1.5047  -1.5047   2.2449   2.2449

     highest occupied level (ev):     6.2013

!    total energy              =     -19.26034856 Ry
     estimated scf accuracy    <          3.1E-09 Ry

     The total energy is the sum of the following terms:
     one-electron contribution =       5.18323778 Ry
     hartree contribution      =       1.09933431 Ry
     xc contribution           =      -8.64316208 Ry
     ewald contribution        =     -16.89975857 Ry

     convergence has been achieved in   6 iterations

     Forces acting on atoms (cartesian axes, Ry/au):

     atom    1 type  1   force =     0.00000000    0.00000000    0.00000000
     atom    2 type  1   force =    -0.00000000   -0.00000000    0.00000000

     Total force =     0.000000     Total SCF correction =     0.000000


     Computing stress (Cartesian axis) and pressure

          total   stress  (Ry/bohr**3)                   (kbar)     P=        1.54
   0.00001046   0.00000000   0.00000000            1.54        0.00        0.00
  -0.00000000   0.00001046  -0.00000000           -0.00        1.54       -0.00
   0.00000000  -0.00000000   0.00001046            0.00       -0.00        1.54


     Writing all to output data dir ./Si.save/
 
     init_run     :      1.74s CPU      1.81s WALL (       1 calls)
     electrons    :     13.40s CPU     14.63s WALL (       1 calls)
     forces       :      0.26s CPU      0.28s WALL (       1 calls)
     stress       :      1.89s CPU      1.91s WALL (       1 calls)

     Called by init_run:
     wfcinit      :      0.75s CPU      0.78s WALL (       1 calls)
     potinit      :      0.02s CPU      0.02s WALL (       1 calls)
     hinit0       :      0.84s CPU      0.85s WALL (       1 calls)

     Called by electrons:
     c_bands      :     10.69s CPU     11.70s WALL (       7 calls)
     sum_band     :      2.15s CPU      2.28s WALL (       7 calls)
     v_of_rho     :      0.08s CPU      0.08s WALL (       7 calls)
     newd         :      0.54s CPU      0.61s WALL (       7 calls)
     mix_rho      :      0.02s CPU      0.03s WALL (       7 calls)

     Called by c_bands:
     init_us_2    :      1.03s CPU      1.08s WALL (     493 calls)
     init_us_2:cp :      1.02s CPU      1.07s WALL (     493 calls)
     ccgdiagg     :      8.56s CPU      9.19s WALL (     203 calls)
     wfcrot       :      2.22s CPU      2.31s WALL (     174 calls)

     Called by *cgdiagg:
     h_psi        :      8.49s CPU      8.91s WALL (    2606 calls)
     s_psi        :      1.03s CPU      1.22s WALL (    5038 calls)

     Called by h_psi:
     h_psi:calbec :      0.65s CPU      0.68s WALL (    2606 calls)
     vloc_psi     :      7.05s CPU      7.37s WALL (    2606 calls)
     add_vuspsi   :      0.61s CPU      0.68s WALL (    2606 calls)
     hs_1psi      :      7.16s CPU      7.59s WALL (    2432 calls)
     s_1psi       :      1.06s CPU      1.21s WALL (    2432 calls)

     General routines
     calbec       :      1.13s CPU      1.29s WALL (    5386 calls)
     fft          :      0.04s CPU      0.04s WALL (      37 calls)
     ffts         :      0.01s CPU      0.01s WALL (       7 calls)
     fftw         :      6.68s CPU      6.96s WALL (    7300 calls)
 
     Parallel routines
 
     PWSCF        :     17.85s CPU     19.63s WALL

 
   This run was terminated on:  12:13: 7   5Mar2022            

=------------------------------------------------------------------------------=
   JOB DONE.
=------------------------------------------------------------------------------=
