
     Program PWSCF v.7.0 starts on  5Mar2022 at 12:13: 9 

     This program is part of the open-source Quantum ESPRESSO suite
     for quantum simulation of materials; please cite
         "P. Giannozzi et al., J. Phys.:Condens. Matter 21 395502 (2009);
         "P. Giannozzi et al., J. Phys.:Condens. Matter 29 465901 (2017);
         "P. Giannozzi et al., J. Chem. Phys. 152 154105 (2020);
          URL http://www.quantum-espresso.org", 
     in publications or presentations arising from this work. More details at
     http://www.quantum-espresso.org/quote

     Parallel version (MPI), running on     1 processors

     MPI processes distributed on     1 nodes
     88505 MiB available memory on the printing compute node when the environment starts
 
     Waiting for input...
     Reading input from standard input
Warning: card &CELL ignored
Warning: card  CELL_DYNAMICS = 'BFGS', ignored
Warning: card  PRESS=0.1D0, ignored
Warning: card / ignored

     Current dimensions of program PWSCF are:
     Max number of different atomic species (ntypx) = 10
     Max number of k-points (npk) =  40000
     Max angular momentum in pseudopotentials (lmaxx) =  4

     Subspace diagonalization in iterative solution of the eigenvalue problem:
     a serial algorithm will be used

 
     G-vector sticks info
     --------------------
     sticks:   dense  smooth     PW     G-vecs:    dense   smooth      PW
     Sum         859     859    253                16625    16625    2733
 
     Using Slab Decomposition
 


     bravais-lattice index     =            2
     lattice parameter (alat)  =      10.2000  a.u.
     unit-cell volume          =     265.3020 (a.u.)^3
     number of atoms/cell      =            2
     number of atomic types    =            1
     number of electrons       =         8.00
     number of Kohn-Sham states=            4
     kinetic-energy cutoff     =      60.0000  Ry
     charge density cutoff     =     240.0000  Ry
     scf convergence threshold =      1.0E-08
     mixing beta               =       0.7000
     number of iterations used =            8  plain     mixing
     Exchange-correlation= SLA  PZ   NOGX NOGC
                           (   1   1   0   0   0   0   0)

     celldm(1)=  10.200000  celldm(2)=   0.000000  celldm(3)=   0.000000
     celldm(4)=   0.000000  celldm(5)=   0.000000  celldm(6)=   0.000000

     crystal axes: (cart. coord. in units of alat)
               a(1) = (  -0.500000   0.000000   0.500000 )  
               a(2) = (   0.000000   0.500000   0.500000 )  
               a(3) = (  -0.500000   0.500000   0.000000 )  

     reciprocal axes: (cart. coord. in units 2 pi/alat)
               b(1) = ( -1.000000 -1.000000  1.000000 )  
               b(2) = (  1.000000  1.000000  1.000000 )  
               b(3) = ( -1.000000  1.000000 -1.000000 )  


     PseudoPot. # 1 for Si read from file:
     ./Si_LDA.UPF
     MD5 check sum: b5ade7b37ee992b02096e360e546dc2d
     Pseudo is Ultrasoft + core correction, Zval =  4.0
     Generated by new atomic code, or converted to UPF format
     Using radial grid of  899 points,  6 beta functions with: 
                l(1) =   0
                l(2) =   0
                l(3) =   1
                l(4) =   1
                l(5) =   2
                l(6) =   2
     Q(r) pseudized with  8 coefficients,  rinner =    0.900   0.900   0.900
                                                       0.900   0.900

     atomic species   valence    mass     pseudopotential
        Si             4.00    28.08550     Si( 1.00)

     48 Sym. Ops., with inversion, found (24 have fractional translation)



   Cartesian axes

     site n.     atom                  positions (alat units)
         1           Si  tau(   1) = (   0.0000000   0.0000000   0.0000000  )
         2           Si  tau(   2) = (  -0.2500000   0.2500000   0.2500000  )

     number of k points=    35
                       cart. coord. in units 2pi/alat
        k(    1) = (   0.0000000   0.0000000   0.0000000), wk =   0.0027435
        k(    2) = (  -0.1111111   0.1111111  -0.1111111), wk =   0.0219479
        k(    3) = (  -0.2222222   0.2222222  -0.2222222), wk =   0.0219479
        k(    4) = (  -0.3333333   0.3333333  -0.3333333), wk =   0.0219479
        k(    5) = (  -0.4444444   0.4444444  -0.4444444), wk =   0.0219479
        k(    6) = (   0.0000000   0.2222222   0.0000000), wk =   0.0164609
        k(    7) = (  -0.1111111   0.3333333  -0.1111111), wk =   0.0658436
        k(    8) = (  -0.2222222   0.4444444  -0.2222222), wk =   0.0658436
        k(    9) = (  -0.3333333   0.5555556  -0.3333333), wk =   0.0658436
        k(   10) = (   0.5555556  -0.3333333   0.5555556), wk =   0.0658436
        k(   11) = (   0.4444444  -0.2222222   0.4444444), wk =   0.0658436
        k(   12) = (   0.3333333  -0.1111111   0.3333333), wk =   0.0658436
        k(   13) = (   0.2222222  -0.0000000   0.2222222), wk =   0.0329218
        k(   14) = (   0.0000000   0.4444444   0.0000000), wk =   0.0164609
        k(   15) = (  -0.1111111   0.5555556  -0.1111111), wk =   0.0658436
        k(   16) = (  -0.2222222   0.6666667  -0.2222222), wk =   0.0658436
        k(   17) = (   0.6666667  -0.2222222   0.6666667), wk =   0.0658436
        k(   18) = (   0.5555556  -0.1111111   0.5555556), wk =   0.0658436
        k(   19) = (   0.4444444  -0.0000000   0.4444444), wk =   0.0329218
        k(   20) = (   0.0000000   0.6666667   0.0000000), wk =   0.0164609
        k(   21) = (  -0.1111111   0.7777778  -0.1111111), wk =   0.0658436
        k(   22) = (   0.7777778  -0.1111111   0.7777778), wk =   0.0658436
        k(   23) = (   0.6666667  -0.0000000   0.6666667), wk =   0.0329218
        k(   24) = (   0.0000000   0.8888889   0.0000000), wk =   0.0164609
        k(   25) = (   0.8888889   0.0000000   0.8888889), wk =   0.0329218
        k(   26) = (  -0.2222222   0.4444444   0.0000000), wk =   0.0658436
        k(   27) = (  -0.3333333   0.5555556  -0.1111111), wk =   0.1316872
        k(   28) = (   0.5555556  -0.3333333   0.7777778), wk =   0.1316872
        k(   29) = (  -0.2222222   0.6666667   0.0000000), wk =   0.0658436
        k(   30) = (   0.6666667  -0.2222222   0.8888889), wk =   0.1316872
        k(   31) = (   0.5555556  -0.1111111   0.7777778), wk =   0.1316872
        k(   32) = (   0.4444444  -0.0000000   0.6666667), wk =   0.0658436
        k(   33) = (   0.7777778  -0.1111111   1.0000000), wk =   0.0658436
        k(   34) = (   0.6666667  -0.0000000   0.8888889), wk =   0.0658436
        k(   35) = (   0.5555556  -0.1111111   1.0000000), wk =   0.0658436

     Dense  grid:    16625 G-vectors     FFT dimensions: (  36,  36,  36)

     Estimated max dynamical RAM per process >      68.07 MB

     Initial potential from superposition of free atoms

     starting charge       7.9988, renormalised to       8.0000
     Starting wfcs are    8 randomized atomic wfcs

     total cpu time spent up to now is        2.6 secs

     Self-consistent Calculation

     iteration #  1     ecut=    60.00 Ry     beta= 0.70
     CG style diagonalization
     ethr =  1.00E-02,  avg # of iterations =  3.0

     Threshold (ethr) on eigenvalues was too large:
     Diagonalizing with lowered threshold

     CG style diagonalization
     ethr =  7.36E-04,  avg # of iterations =  2.0

     total cpu time spent up to now is        6.4 secs

     total energy              =     -19.25692723 Ry
     estimated scf accuracy    <       0.05937651 Ry

     iteration #  2     ecut=    60.00 Ry     beta= 0.70
     CG style diagonalization
     ethr =  7.42E-04,  avg # of iterations =  3.0

     total cpu time spent up to now is        8.5 secs

     total energy              =     -19.25990725 Ry
     estimated scf accuracy    <       0.00197465 Ry

     iteration #  3     ecut=    60.00 Ry     beta= 0.70
     CG style diagonalization
     ethr =  2.47E-05,  avg # of iterations =  4.1

     total cpu time spent up to now is       11.1 secs

     total energy              =     -19.26049024 Ry
     estimated scf accuracy    <       0.00006961 Ry

     iteration #  4     ecut=    60.00 Ry     beta= 0.70
     CG style diagonalization
     ethr =  8.70E-07,  avg # of iterations =  4.4

     total cpu time spent up to now is       13.9 secs

     total energy              =     -19.26052771 Ry
     estimated scf accuracy    <       0.00001463 Ry

     iteration #  5     ecut=    60.00 Ry     beta= 0.70
     CG style diagonalization
     ethr =  1.83E-07,  avg # of iterations =  3.9

     total cpu time spent up to now is       16.5 secs

     total energy              =     -19.26053061 Ry
     estimated scf accuracy    <       0.00000005 Ry

     iteration #  6     ecut=    60.00 Ry     beta= 0.70
     CG style diagonalization
     ethr =  6.14E-10,  avg # of iterations =  5.8

     total cpu time spent up to now is       20.0 secs

     End of self-consistent calculation

          k = 0.0000 0.0000 0.0000 (  2085 PWs)   bands (ev):

    -5.8897   6.2003   6.2003   6.2003

          k =-0.1111 0.1111-0.1111 (  2079 PWs)   bands (ev):

    -5.7256   4.8370   5.9575   5.9575

          k =-0.2222 0.2222-0.2222 (  2079 PWs)   bands (ev):

    -5.2433   2.7321   5.5273   5.5273

          k =-0.3333 0.3333-0.3333 (  2090 PWs)   bands (ev):

    -4.4885   0.7910   5.1866   5.1866

          k =-0.4444 0.4444-0.4444 (  2066 PWs)   bands (ev):

    -3.6759  -0.6335   5.0099   5.0099

          k = 0.0000 0.2222 0.0000 (  2065 PWs)   bands (ev):

    -5.6705   5.0882   5.5053   5.5053

          k =-0.1111 0.3333-0.1111 (  2064 PWs)   bands (ev):

    -5.2924   3.3741   5.0241   5.1673

          k =-0.2222 0.4444-0.2222 (  2079 PWs)   bands (ev):

    -4.6198   1.4355   4.6522   4.7166

          k =-0.3333 0.5556-0.3333 (  2083 PWs)   bands (ev):

    -3.7742  -0.1853   4.2089   4.6362

          k = 0.5556-0.3333 0.5556 (  2086 PWs)   bands (ev):

    -3.3823  -0.7736   3.9438   4.7813

          k = 0.4444-0.2222 0.4444 (  2076 PWs)   bands (ev):

    -4.0599   0.3012   3.9053   5.1189

          k = 0.3333-0.1111 0.3333 (  2070 PWs)   bands (ev):

    -4.8753   2.0621   4.1359   5.5768

          k = 0.2222-0.0000 0.2222 (  2071 PWs)   bands (ev):

    -5.4547   3.8561   4.7944   5.9765

          k = 0.0000 0.4444 0.0000 (  2069 PWs)   bands (ev):

    -5.0192   3.1714   4.4929   4.4929

          k =-0.1111 0.5556-0.1111 (  2076 PWs)   bands (ev):

    -4.4403   1.8180   3.8497   4.1463

          k =-0.2222 0.6667-0.2222 (  2087 PWs)   bands (ev):

    -3.6251   0.3162   3.0913   4.0487

          k = 0.6667-0.2222 0.6667 (  2075 PWs)   bands (ev):

    -2.9499  -0.6526   2.5598   4.2084

          k = 0.5556-0.1111 0.5556 (  2088 PWs)   bands (ev):

    -3.3747  -0.0576   2.3692   4.5980

          k = 0.4444-0.0000 0.4444 (  2087 PWs)   bands (ev):

    -4.2158   1.2165   2.7549   5.1317

          k = 0.0000 0.6667 0.0000 (  2080 PWs)   bands (ev):

    -3.9556   1.1624   3.7386   3.7386

          k =-0.1111 0.7778-0.1111 (  2089 PWs)   bands (ev):

    -3.2039   0.0989   2.9824   3.5797

          k = 0.7778-0.1111 0.7778 (  2097 PWs)   bands (ev):

    -2.3898  -0.8151   2.0449   3.6898

          k = 0.6667-0.0000 0.6667 (  2079 PWs)   bands (ev):

    -2.5631  -0.6260   1.6699   4.0525

          k = 0.0000 0.8889 0.0000 (  2080 PWs)   bands (ev):

    -2.5191  -0.7780   3.3476   3.3476

          k = 0.8889 0.0000 0.8889 (  2081 PWs)   bands (ev):

    -1.7304  -1.5632   2.7000   3.3861

          k =-0.2222 0.4444 0.0000 (  2065 PWs)   bands (ev):

    -4.8148   2.3830   3.7695   5.0145

          k =-0.3333 0.5556-0.1111 (  2081 PWs)   bands (ev):

    -4.0656   0.8665   3.1557   4.5645

          k = 0.5556-0.3333 0.7778 (  2065 PWs)   bands (ev):

    -3.2484  -0.4535   2.9656   4.2321

          k =-0.2222 0.6667 0.0000 (  2074 PWs)   bands (ev):

    -3.7772   0.8533   3.0445   3.7566

          k = 0.6667-0.2222 0.8889 (  2092 PWs)   bands (ev):

    -2.9326  -0.2488   2.3614   3.4395

          k = 0.5556-0.1111 0.7778 (  2088 PWs)   bands (ev):

    -2.5548  -0.6877   1.9632   3.5554

          k = 0.4444-0.0000 0.6667 (  2087 PWs)   bands (ev):

    -3.2737   0.1309   2.1112   4.0047

          k = 0.7778-0.1111 1.0000 (  2098 PWs)   bands (ev):

    -2.3982  -0.7909   2.7516   2.9663

          k = 0.6667-0.0000 0.8889 (  2091 PWs)   bands (ev):

    -1.8588  -1.2612   1.9970   3.0566

          k = 0.5556-0.1111 1.0000 (  2098 PWs)   bands (ev):

    -2.1106  -0.9370   2.0378   2.6976

     highest occupied level (ev):     6.2003

!    total energy              =     -19.26053082 Ry
     estimated scf accuracy    <          3.0E-09 Ry

     The total energy is the sum of the following terms:
     one-electron contribution =       5.18336384 Ry
     hartree contribution      =       1.09880305 Ry
     xc contribution           =      -8.64293914 Ry
     ewald contribution        =     -16.89975857 Ry

     convergence has been achieved in   6 iterations

     Forces acting on atoms (cartesian axes, Ry/au):

     atom    1 type  1   force =     0.00000000    0.00000000   -0.00000000
     atom    2 type  1   force =     0.00000000   -0.00000000    0.00000000

     Total force =     0.000000     Total SCF correction =     0.000000


     Computing stress (Cartesian axis) and pressure

          total   stress  (Ry/bohr**3)                   (kbar)     P=        1.48
   0.00001003   0.00000000  -0.00000000            1.48        0.00       -0.00
   0.00000000   0.00001003   0.00000000            0.00        1.48        0.00
  -0.00000000   0.00000000   0.00001003           -0.00        0.00        1.48


     Writing all to output data dir ./Si.save/
 
     init_run     :      1.90s CPU      1.96s WALL (       1 calls)
     electrons    :     16.05s CPU     17.50s WALL (       1 calls)
     forces       :      0.30s CPU      0.33s WALL (       1 calls)
     stress       :      2.09s CPU      2.13s WALL (       1 calls)

     Called by init_run:
     wfcinit      :      0.92s CPU      0.95s WALL (       1 calls)
     potinit      :      0.01s CPU      0.02s WALL (       1 calls)
     hinit0       :      0.82s CPU      0.83s WALL (       1 calls)

     Called by electrons:
     c_bands      :     13.02s CPU     14.24s WALL (       7 calls)
     sum_band     :      2.46s CPU      2.60s WALL (       7 calls)
     v_of_rho     :      0.08s CPU      0.08s WALL (       7 calls)
     newd         :      0.55s CPU      0.61s WALL (       7 calls)
     mix_rho      :      0.02s CPU      0.03s WALL (       7 calls)

     Called by c_bands:
     init_us_2    :      1.26s CPU      1.32s WALL (     595 calls)
     init_us_2:cp :      1.24s CPU      1.31s WALL (     595 calls)
     ccgdiagg     :     10.45s CPU     11.20s WALL (     245 calls)
     wfcrot       :      2.69s CPU      2.80s WALL (     210 calls)

     Called by *cgdiagg:
     h_psi        :     10.34s CPU     10.86s WALL (    3171 calls)
     s_psi        :      1.26s CPU      1.47s WALL (    6132 calls)

     Called by h_psi:
     h_psi:calbec :      0.81s CPU      0.86s WALL (    3171 calls)
     vloc_psi     :      8.59s CPU      8.97s WALL (    3171 calls)
     add_vuspsi   :      0.73s CPU      0.82s WALL (    3171 calls)
     hs_1psi      :      8.72s CPU      9.24s WALL (    2961 calls)
     s_1psi       :      1.32s CPU      1.48s WALL (    2961 calls)

     General routines
     calbec       :      1.43s CPU      1.62s WALL (    6552 calls)
     fft          :      0.04s CPU      0.04s WALL (      37 calls)
     ffts         :      0.01s CPU      0.01s WALL (       7 calls)
     fftw         :      8.14s CPU      8.47s WALL (    8862 calls)
 
     Parallel routines
 
     PWSCF        :     20.88s CPU     22.90s WALL

 
   This run was terminated on:  12:13:32   5Mar2022            

=------------------------------------------------------------------------------=
   JOB DONE.
=------------------------------------------------------------------------------=
