
     Program PWSCF v.7.0 starts on  5Mar2022 at 12:11:57 

     This program is part of the open-source Quantum ESPRESSO suite
     for quantum simulation of materials; please cite
         "P. Giannozzi et al., J. Phys.:Condens. Matter 21 395502 (2009);
         "P. Giannozzi et al., J. Phys.:Condens. Matter 29 465901 (2017);
         "P. Giannozzi et al., J. Chem. Phys. 152 154105 (2020);
          URL http://www.quantum-espresso.org", 
     in publications or presentations arising from this work. More details at
     http://www.quantum-espresso.org/quote

     Parallel version (MPI), running on     1 processors

     MPI processes distributed on     1 nodes
     88507 MiB available memory on the printing compute node when the environment starts
 
     Waiting for input...
     Reading input from standard input
Warning: card &CELL ignored
Warning: card  CELL_DYNAMICS = 'BFGS', ignored
Warning: card  PRESS=0.1D0, ignored
Warning: card / ignored

     Current dimensions of program PWSCF are:
     Max number of different atomic species (ntypx) = 10
     Max number of k-points (npk) =  40000
     Max angular momentum in pseudopotentials (lmaxx) =  4

     Subspace diagonalization in iterative solution of the eigenvalue problem:
     a serial algorithm will be used

 
     G-vector sticks info
     --------------------
     sticks:   dense  smooth     PW     G-vecs:    dense   smooth      PW
     Sum         859     859    253                16625    16625    2733
 
     Using Slab Decomposition
 


     bravais-lattice index     =            2
     lattice parameter (alat)  =      10.2000  a.u.
     unit-cell volume          =     265.3020 (a.u.)^3
     number of atoms/cell      =            2
     number of atomic types    =            1
     number of electrons       =         8.00
     number of Kohn-Sham states=            4
     kinetic-energy cutoff     =      60.0000  Ry
     charge density cutoff     =     240.0000  Ry
     scf convergence threshold =      1.0E-08
     mixing beta               =       0.7000
     number of iterations used =            8  plain     mixing
     Exchange-correlation= SLA  PZ   NOGX NOGC
                           (   1   1   0   0   0   0   0)

     celldm(1)=  10.200000  celldm(2)=   0.000000  celldm(3)=   0.000000
     celldm(4)=   0.000000  celldm(5)=   0.000000  celldm(6)=   0.000000

     crystal axes: (cart. coord. in units of alat)
               a(1) = (  -0.500000   0.000000   0.500000 )  
               a(2) = (   0.000000   0.500000   0.500000 )  
               a(3) = (  -0.500000   0.500000   0.000000 )  

     reciprocal axes: (cart. coord. in units 2 pi/alat)
               b(1) = ( -1.000000 -1.000000  1.000000 )  
               b(2) = (  1.000000  1.000000  1.000000 )  
               b(3) = ( -1.000000  1.000000 -1.000000 )  


     PseudoPot. # 1 for Si read from file:
     ./Si_LDA.UPF
     MD5 check sum: b5ade7b37ee992b02096e360e546dc2d
     Pseudo is Ultrasoft + core correction, Zval =  4.0
     Generated by new atomic code, or converted to UPF format
     Using radial grid of  899 points,  6 beta functions with: 
                l(1) =   0
                l(2) =   0
                l(3) =   1
                l(4) =   1
                l(5) =   2
                l(6) =   2
     Q(r) pseudized with  8 coefficients,  rinner =    0.900   0.900   0.900
                                                       0.900   0.900

     atomic species   valence    mass     pseudopotential
        Si             4.00    28.08550     Si( 1.00)

     48 Sym. Ops., with inversion, found (24 have fractional translation)



   Cartesian axes

     site n.     atom                  positions (alat units)
         1           Si  tau(   1) = (   0.0000000   0.0000000   0.0000000  )
         2           Si  tau(   2) = (  -0.2500000   0.2500000   0.2500000  )

     number of k points=     8
                       cart. coord. in units 2pi/alat
        k(    1) = (   0.0000000   0.0000000   0.0000000), wk =   0.0312500
        k(    2) = (  -0.2500000   0.2500000  -0.2500000), wk =   0.2500000
        k(    3) = (   0.5000000  -0.5000000   0.5000000), wk =   0.1250000
        k(    4) = (   0.0000000   0.5000000   0.0000000), wk =   0.1875000
        k(    5) = (   0.7500000  -0.2500000   0.7500000), wk =   0.7500000
        k(    6) = (   0.5000000   0.0000000   0.5000000), wk =   0.3750000
        k(    7) = (   0.0000000  -1.0000000   0.0000000), wk =   0.0937500
        k(    8) = (  -0.5000000  -1.0000000   0.0000000), wk =   0.1875000

     Dense  grid:    16625 G-vectors     FFT dimensions: (  36,  36,  36)

     Estimated max dynamical RAM per process >      64.64 MB

     Initial potential from superposition of free atoms

     starting charge       7.9988, renormalised to       8.0000
     Starting wfcs are    8 randomized atomic wfcs

     total cpu time spent up to now is        1.8 secs

     Self-consistent Calculation

     iteration #  1     ecut=    60.00 Ry     beta= 0.70
     CG style diagonalization
     ethr =  1.00E-02,  avg # of iterations =  3.0

     Threshold (ethr) on eigenvalues was too large:
     Diagonalizing with lowered threshold

     CG style diagonalization
     ethr =  8.12E-04,  avg # of iterations =  2.0

     total cpu time spent up to now is        2.9 secs

     total energy              =     -19.24219845 Ry
     estimated scf accuracy    <       0.06552617 Ry

     iteration #  2     ecut=    60.00 Ry     beta= 0.70
     CG style diagonalization
     ethr =  8.19E-04,  avg # of iterations =  3.0

     total cpu time spent up to now is        3.6 secs

     total energy              =     -19.24537280 Ry
     estimated scf accuracy    <       0.00219988 Ry

     iteration #  3     ecut=    60.00 Ry     beta= 0.70
     CG style diagonalization
     ethr =  2.75E-05,  avg # of iterations =  3.8

     total cpu time spent up to now is        4.3 secs

     total energy              =     -19.24587239 Ry
     estimated scf accuracy    <       0.00006427 Ry

     iteration #  4     ecut=    60.00 Ry     beta= 0.70
     CG style diagonalization
     ethr =  8.03E-07,  avg # of iterations =  4.4

     total cpu time spent up to now is        5.1 secs

     total energy              =     -19.24590785 Ry
     estimated scf accuracy    <       0.00001079 Ry

     iteration #  5     ecut=    60.00 Ry     beta= 0.70
     CG style diagonalization
     ethr =  1.35E-07,  avg # of iterations =  4.0

     total cpu time spent up to now is        5.9 secs

     total energy              =     -19.24591051 Ry
     estimated scf accuracy    <       0.00000013 Ry

     iteration #  6     ecut=    60.00 Ry     beta= 0.70
     CG style diagonalization
     ethr =  1.59E-09,  avg # of iterations =  4.9

     total cpu time spent up to now is        6.8 secs

     total energy              =     -19.24591069 Ry
     estimated scf accuracy    <       0.00000002 Ry

     iteration #  7     ecut=    60.00 Ry     beta= 0.70
     CG style diagonalization
     ethr =  2.71E-10,  avg # of iterations =  4.1

     total cpu time spent up to now is        7.5 secs

     End of self-consistent calculation

          k = 0.0000 0.0000 0.0000 (  2085 PWs)   bands (ev):

    -5.8575   6.2449   6.2449   6.2449

          k =-0.2500 0.2500-0.2500 (  2067 PWs)   bands (ev):

    -5.0436   2.2546   5.4694   5.4694

          k = 0.5000-0.5000 0.5000 (  2060 PWs)   bands (ev):

    -3.4691  -0.8514   5.0277   5.0277

          k = 0.0000 0.5000 0.0000 (  2045 PWs)   bands (ev):

    -4.7574   2.7130   4.3085   4.3085

          k = 0.7500-0.2500 0.7500 (  2081 PWs)   bands (ev):

    -3.0859  -0.2081   2.6115   3.9915

          k = 0.5000 0.0000 0.5000 (  2085 PWs)   bands (ev):

    -3.7747   0.7128   2.3769   4.8909

          k = 0.0000-1.0000 0.0000 (  2100 PWs)   bands (ev):

    -1.6434  -1.6434   3.3310   3.3310

          k =-0.5000-1.0000 0.0000 (  2120 PWs)   bands (ev):

    -1.4663  -1.4663   2.2692   2.2692

     highest occupied level (ev):     6.2449

!    total energy              =     -19.24591070 Ry
     estimated scf accuracy    <          1.6E-10 Ry

     The total energy is the sum of the following terms:
     one-electron contribution =       5.18457614 Ry
     hartree contribution      =       1.12222055 Ry
     xc contribution           =      -8.65294882 Ry
     ewald contribution        =     -16.89975857 Ry

     convergence has been achieved in   7 iterations

     Forces acting on atoms (cartesian axes, Ry/au):

     atom    1 type  1   force =     0.00000000    0.00000000    0.00000000
     atom    2 type  1   force =     0.00000000    0.00000000    0.00000000

     Total force =     0.000000     Total SCF correction =     0.000000


     Computing stress (Cartesian axis) and pressure

          total   stress  (Ry/bohr**3)                   (kbar)     P=        7.91
   0.00005375  -0.00000000  -0.00000000            7.91       -0.00       -0.00
  -0.00000000   0.00005375   0.00000000           -0.00        7.91        0.00
  -0.00000000   0.00000000   0.00005375           -0.00        0.00        7.91


     Writing all to output data dir ./Si.save/
 
     init_run     :      1.15s CPU      1.21s WALL (       1 calls)
     electrons    :      5.23s CPU      5.73s WALL (       1 calls)
     forces       :      0.16s CPU      0.18s WALL (       1 calls)
     stress       :      1.19s CPU      1.21s WALL (       1 calls)

     Called by init_run:
     wfcinit      :      0.21s CPU      0.22s WALL (       1 calls)
     potinit      :      0.02s CPU      0.02s WALL (       1 calls)
     hinit0       :      0.82s CPU      0.84s WALL (       1 calls)

     Called by electrons:
     c_bands      :      3.34s CPU      3.63s WALL (       8 calls)
     sum_band     :      1.26s CPU      1.35s WALL (       8 calls)
     v_of_rho     :      0.09s CPU      0.09s WALL (       8 calls)
     newd         :      0.59s CPU      0.69s WALL (       8 calls)
     mix_rho      :      0.02s CPU      0.03s WALL (       8 calls)

     Called by c_bands:
     init_us_2    :      0.32s CPU      0.33s WALL (     152 calls)
     init_us_2:cp :      0.32s CPU      0.33s WALL (     152 calls)
     ccgdiagg     :      2.63s CPU      2.80s WALL (      64 calls)
     wfcrot       :      0.71s CPU      0.74s WALL (      56 calls)

     Called by *cgdiagg:
     h_psi        :      2.62s CPU      2.75s WALL (     796 calls)
     s_psi        :      0.32s CPU      0.38s WALL (    1536 calls)

     Called by h_psi:
     h_psi:calbec :      0.20s CPU      0.21s WALL (     796 calls)
     vloc_psi     :      2.18s CPU      2.27s WALL (     796 calls)
     add_vuspsi   :      0.19s CPU      0.21s WALL (     796 calls)
     hs_1psi      :      2.19s CPU      2.31s WALL (     740 calls)
     s_1psi       :      0.33s CPU      0.37s WALL (     740 calls)

     General routines
     calbec       :      0.35s CPU      0.40s WALL (    1640 calls)
     fft          :      0.04s CPU      0.04s WALL (      41 calls)
     ffts         :      0.01s CPU      0.01s WALL (       8 calls)
     fftw         :      2.08s CPU      2.16s WALL (    2248 calls)
 
     Parallel routines
 
     PWSCF        :      8.26s CPU      9.11s WALL

 
   This run was terminated on:  12:12: 6   5Mar2022            

=------------------------------------------------------------------------------=
   JOB DONE.
=------------------------------------------------------------------------------=
