
     Program PWSCF v.7.0 starts on  5Mar2022 at 12:11:42 

     This program is part of the open-source Quantum ESPRESSO suite
     for quantum simulation of materials; please cite
         "P. Giannozzi et al., J. Phys.:Condens. Matter 21 395502 (2009);
         "P. Giannozzi et al., J. Phys.:Condens. Matter 29 465901 (2017);
         "P. Giannozzi et al., J. Chem. Phys. 152 154105 (2020);
          URL http://www.quantum-espresso.org", 
     in publications or presentations arising from this work. More details at
     http://www.quantum-espresso.org/quote

     Parallel version (MPI), running on     1 processors

     MPI processes distributed on     1 nodes
     88508 MiB available memory on the printing compute node when the environment starts
 
     Waiting for input...
     Reading input from standard input
Warning: card &CELL ignored
Warning: card  CELL_DYNAMICS = 'BFGS', ignored
Warning: card  PRESS=0.1D0, ignored
Warning: card / ignored

     Current dimensions of program PWSCF are:
     Max number of different atomic species (ntypx) = 10
     Max number of k-points (npk) =  40000
     Max angular momentum in pseudopotentials (lmaxx) =  4

     Subspace diagonalization in iterative solution of the eigenvalue problem:
     a serial algorithm will be used

 
     G-vector sticks info
     --------------------
     sticks:   dense  smooth     PW     G-vecs:    dense   smooth      PW
     Sum         859     859    253                16625    16625    2685
 
     Using Slab Decomposition
 


     bravais-lattice index     =            2
     lattice parameter (alat)  =      10.2000  a.u.
     unit-cell volume          =     265.3020 (a.u.)^3
     number of atoms/cell      =            2
     number of atomic types    =            1
     number of electrons       =         8.00
     number of Kohn-Sham states=            4
     kinetic-energy cutoff     =      60.0000  Ry
     charge density cutoff     =     240.0000  Ry
     scf convergence threshold =      1.0E-08
     mixing beta               =       0.7000
     number of iterations used =            8  plain     mixing
     Exchange-correlation= SLA  PZ   NOGX NOGC
                           (   1   1   0   0   0   0   0)

     celldm(1)=  10.200000  celldm(2)=   0.000000  celldm(3)=   0.000000
     celldm(4)=   0.000000  celldm(5)=   0.000000  celldm(6)=   0.000000

     crystal axes: (cart. coord. in units of alat)
               a(1) = (  -0.500000   0.000000   0.500000 )  
               a(2) = (   0.000000   0.500000   0.500000 )  
               a(3) = (  -0.500000   0.500000   0.000000 )  

     reciprocal axes: (cart. coord. in units 2 pi/alat)
               b(1) = ( -1.000000 -1.000000  1.000000 )  
               b(2) = (  1.000000  1.000000  1.000000 )  
               b(3) = ( -1.000000  1.000000 -1.000000 )  


     PseudoPot. # 1 for Si read from file:
     ./Si_LDA.UPF
     MD5 check sum: b5ade7b37ee992b02096e360e546dc2d
     Pseudo is Ultrasoft + core correction, Zval =  4.0
     Generated by new atomic code, or converted to UPF format
     Using radial grid of  899 points,  6 beta functions with: 
                l(1) =   0
                l(2) =   0
                l(3) =   1
                l(4) =   1
                l(5) =   2
                l(6) =   2
     Q(r) pseudized with  8 coefficients,  rinner =    0.900   0.900   0.900
                                                       0.900   0.900

     atomic species   valence    mass     pseudopotential
        Si             4.00    28.08550     Si( 1.00)

     48 Sym. Ops., with inversion, found (24 have fractional translation)



   Cartesian axes

     site n.     atom                  positions (alat units)
         1           Si  tau(   1) = (   0.0000000   0.0000000   0.0000000  )
         2           Si  tau(   2) = (  -0.2500000   0.2500000   0.2500000  )

     number of k points=     3
                       cart. coord. in units 2pi/alat
        k(    1) = (   0.0000000   0.0000000   0.0000000), wk =   0.2500000
        k(    2) = (   0.5000000  -0.5000000   0.5000000), wk =   1.0000000
        k(    3) = (   0.0000000  -1.0000000   0.0000000), wk =   0.7500000

     Dense  grid:    16625 G-vectors     FFT dimensions: (  36,  36,  36)

     Estimated max dynamical RAM per process >      64.00 MB

     Initial potential from superposition of free atoms

     starting charge       7.9988, renormalised to       8.0000
     Starting wfcs are    8 randomized atomic wfcs

     total cpu time spent up to now is        1.7 secs

     Self-consistent Calculation

     iteration #  1     ecut=    60.00 Ry     beta= 0.70
     CG style diagonalization
     ethr =  1.00E-02,  avg # of iterations =  2.8

     total cpu time spent up to now is        2.1 secs

     total energy              =     -19.05665008 Ry
     estimated scf accuracy    <       0.11274069 Ry

     iteration #  2     ecut=    60.00 Ry     beta= 0.70
     CG style diagonalization
     ethr =  1.41E-03,  avg # of iterations =  3.2

     total cpu time spent up to now is        2.4 secs

     total energy              =     -19.06447901 Ry
     estimated scf accuracy    <       0.00359708 Ry

     iteration #  3     ecut=    60.00 Ry     beta= 0.70
     CG style diagonalization
     ethr =  4.50E-05,  avg # of iterations =  3.8

     total cpu time spent up to now is        2.9 secs

     total energy              =     -19.06508330 Ry
     estimated scf accuracy    <       0.00007353 Ry

     iteration #  4     ecut=    60.00 Ry     beta= 0.70
     CG style diagonalization
     ethr =  9.19E-07,  avg # of iterations =  4.1

     total cpu time spent up to now is        3.3 secs

     total energy              =     -19.06512330 Ry
     estimated scf accuracy    <       0.00000070 Ry

     iteration #  5     ecut=    60.00 Ry     beta= 0.70
     CG style diagonalization
     ethr =  8.71E-09,  avg # of iterations =  5.8

     total cpu time spent up to now is        3.8 secs

     total energy              =     -19.06512493 Ry
     estimated scf accuracy    <       0.00000003 Ry

     iteration #  6     ecut=    60.00 Ry     beta= 0.70
     CG style diagonalization
     ethr =  3.58E-10,  avg # of iterations =  4.3

     total cpu time spent up to now is        4.2 secs

     End of self-consistent calculation

          k = 0.0000 0.0000 0.0000 (  2085 PWs)   bands (ev):

    -5.6707   6.5045   6.5045   6.5045

          k = 0.5000-0.5000 0.5000 (  2060 PWs)   bands (ev):

    -3.2511  -0.6858   5.2602   5.2602

          k = 0.0000-1.0000 0.0000 (  2100 PWs)   bands (ev):

    -1.4252  -1.4252   3.5218   3.5218

     highest occupied level (ev):     6.5045

!    total energy              =     -19.06512494 Ry
     estimated scf accuracy    <          3.9E-10 Ry

     The total energy is the sum of the following terms:
     one-electron contribution =       5.28697014 Ry
     hartree contribution      =       1.26155592 Ry
     xc contribution           =      -8.71389243 Ry
     ewald contribution        =     -16.89975857 Ry

     convergence has been achieved in   6 iterations

     Forces acting on atoms (cartesian axes, Ry/au):

     atom    1 type  1   force =     0.00000000    0.00000000    0.00000000
     atom    2 type  1   force =    -0.00000000   -0.00000000   -0.00000000

     Total force =     0.000000     Total SCF correction =     0.000000


     Computing stress (Cartesian axis) and pressure

          total   stress  (Ry/bohr**3)                   (kbar)     P=       81.03
   0.00055080   0.00000000   0.00000000           81.03        0.00        0.00
   0.00000000   0.00055080   0.00000000            0.00       81.03        0.00
   0.00000000  -0.00000000   0.00055080            0.00       -0.00       81.03


     Writing all to output data dir ./Si.save/
 
     init_run     :      1.03s CPU      1.07s WALL (       1 calls)
     electrons    :      2.29s CPU      2.56s WALL (       1 calls)
     forces       :      0.14s CPU      0.16s WALL (       1 calls)
     stress       :      1.02s CPU      1.05s WALL (       1 calls)

     Called by init_run:
     wfcinit      :      0.08s CPU      0.09s WALL (       1 calls)
     potinit      :      0.02s CPU      0.02s WALL (       1 calls)
     hinit0       :      0.82s CPU      0.84s WALL (       1 calls)

     Called by electrons:
     c_bands      :      1.02s CPU      1.12s WALL (       6 calls)
     sum_band     :      0.72s CPU      0.79s WALL (       6 calls)
     v_of_rho     :      0.08s CPU      0.08s WALL (       7 calls)
     newd         :      0.54s CPU      0.61s WALL (       7 calls)
     mix_rho      :      0.02s CPU      0.03s WALL (       6 calls)

     Called by c_bands:
     init_us_2    :      0.09s CPU      0.10s WALL (      45 calls)
     init_us_2:cp :      0.09s CPU      0.10s WALL (      45 calls)
     ccgdiagg     :      0.80s CPU      0.86s WALL (      18 calls)
     wfcrot       :      0.23s CPU      0.24s WALL (      18 calls)

     Called by *cgdiagg:
     h_psi        :      0.81s CPU      0.86s WALL (     245 calls)
     s_psi        :      0.10s CPU      0.11s WALL (     472 calls)

     Called by h_psi:
     h_psi:calbec :      0.06s CPU      0.07s WALL (     245 calls)
     vloc_psi     :      0.68s CPU      0.72s WALL (     245 calls)
     add_vuspsi   :      0.05s CPU      0.06s WALL (     245 calls)
     hs_1psi      :      0.67s CPU      0.71s WALL (     227 calls)
     s_1psi       :      0.10s CPU      0.11s WALL (     227 calls)

     General routines
     calbec       :      0.11s CPU      0.13s WALL (     505 calls)
     fft          :      0.04s CPU      0.04s WALL (      36 calls)
     ffts         :      0.00s CPU      0.01s WALL (       6 calls)
     fftw         :      0.64s CPU      0.67s WALL (     694 calls)
 
     Parallel routines
 
     PWSCF        :      4.99s CPU      5.57s WALL

 
   This run was terminated on:  12:11:47   5Mar2022            

=------------------------------------------------------------------------------=
   JOB DONE.
=------------------------------------------------------------------------------=
