
     Program PWSCF v.7.0 starts on  5Mar2022 at 12:14: 3 

     This program is part of the open-source Quantum ESPRESSO suite
     for quantum simulation of materials; please cite
         "P. Giannozzi et al., J. Phys.:Condens. Matter 21 395502 (2009);
         "P. Giannozzi et al., J. Phys.:Condens. Matter 29 465901 (2017);
         "P. Giannozzi et al., J. Chem. Phys. 152 154105 (2020);
          URL http://www.quantum-espresso.org", 
     in publications or presentations arising from this work. More details at
     http://www.quantum-espresso.org/quote

     Parallel version (MPI), running on     1 processors

     MPI processes distributed on     1 nodes
     88499 MiB available memory on the printing compute node when the environment starts
 
     Waiting for input...
     Reading input from standard input
Warning: card &CELL ignored
Warning: card  CELL_DYNAMICS = 'BFGS', ignored
Warning: card  PRESS=0.1D0, ignored
Warning: card / ignored

     Current dimensions of program PWSCF are:
     Max number of different atomic species (ntypx) = 10
     Max number of k-points (npk) =  40000
     Max angular momentum in pseudopotentials (lmaxx) =  4

     Subspace diagonalization in iterative solution of the eigenvalue problem:
     a serial algorithm will be used

 
     G-vector sticks info
     --------------------
     sticks:   dense  smooth     PW     G-vecs:    dense   smooth      PW
     Sum         859     859    253                16625    16625    2741
 
     Using Slab Decomposition
 


     bravais-lattice index     =            2
     lattice parameter (alat)  =      10.2000  a.u.
     unit-cell volume          =     265.3020 (a.u.)^3
     number of atoms/cell      =            2
     number of atomic types    =            1
     number of electrons       =         8.00
     number of Kohn-Sham states=            4
     kinetic-energy cutoff     =      60.0000  Ry
     charge density cutoff     =     240.0000  Ry
     scf convergence threshold =      1.0E-08
     mixing beta               =       0.7000
     number of iterations used =            8  plain     mixing
     Exchange-correlation= SLA  PZ   NOGX NOGC
                           (   1   1   0   0   0   0   0)

     celldm(1)=  10.200000  celldm(2)=   0.000000  celldm(3)=   0.000000
     celldm(4)=   0.000000  celldm(5)=   0.000000  celldm(6)=   0.000000

     crystal axes: (cart. coord. in units of alat)
               a(1) = (  -0.500000   0.000000   0.500000 )  
               a(2) = (   0.000000   0.500000   0.500000 )  
               a(3) = (  -0.500000   0.500000   0.000000 )  

     reciprocal axes: (cart. coord. in units 2 pi/alat)
               b(1) = ( -1.000000 -1.000000  1.000000 )  
               b(2) = (  1.000000  1.000000  1.000000 )  
               b(3) = ( -1.000000  1.000000 -1.000000 )  


     PseudoPot. # 1 for Si read from file:
     ./Si_LDA.UPF
     MD5 check sum: b5ade7b37ee992b02096e360e546dc2d
     Pseudo is Ultrasoft + core correction, Zval =  4.0
     Generated by new atomic code, or converted to UPF format
     Using radial grid of  899 points,  6 beta functions with: 
                l(1) =   0
                l(2) =   0
                l(3) =   1
                l(4) =   1
                l(5) =   2
                l(6) =   2
     Q(r) pseudized with  8 coefficients,  rinner =    0.900   0.900   0.900
                                                       0.900   0.900

     atomic species   valence    mass     pseudopotential
        Si             4.00    28.08550     Si( 1.00)

     48 Sym. Ops., with inversion, found (24 have fractional translation)



   Cartesian axes

     site n.     atom                  positions (alat units)
         1           Si  tau(   1) = (   0.0000000   0.0000000   0.0000000  )
         2           Si  tau(   2) = (  -0.2500000   0.2500000   0.2500000  )

     number of k points=    56
                       cart. coord. in units 2pi/alat
        k(    1) = (   0.0000000   0.0000000   0.0000000), wk =   0.0015026
        k(    2) = (  -0.0909091   0.0909091  -0.0909091), wk =   0.0120210
        k(    3) = (  -0.1818182   0.1818182  -0.1818182), wk =   0.0120210
        k(    4) = (  -0.2727273   0.2727273  -0.2727273), wk =   0.0120210
        k(    5) = (  -0.3636364   0.3636364  -0.3636364), wk =   0.0120210
        k(    6) = (  -0.4545455   0.4545455  -0.4545455), wk =   0.0120210
        k(    7) = (   0.0000000   0.1818182   0.0000000), wk =   0.0090158
        k(    8) = (  -0.0909091   0.2727273  -0.0909091), wk =   0.0360631
        k(    9) = (  -0.1818182   0.3636364  -0.1818182), wk =   0.0360631
        k(   10) = (  -0.2727273   0.4545455  -0.2727273), wk =   0.0360631
        k(   11) = (  -0.3636364   0.5454545  -0.3636364), wk =   0.0360631
        k(   12) = (   0.5454545  -0.3636364   0.5454545), wk =   0.0360631
        k(   13) = (   0.4545455  -0.2727273   0.4545455), wk =   0.0360631
        k(   14) = (   0.3636364  -0.1818182   0.3636364), wk =   0.0360631
        k(   15) = (   0.2727273  -0.0909091   0.2727273), wk =   0.0360631
        k(   16) = (   0.1818182   0.0000000   0.1818182), wk =   0.0180316
        k(   17) = (   0.0000000   0.3636364   0.0000000), wk =   0.0090158
        k(   18) = (  -0.0909091   0.4545455  -0.0909091), wk =   0.0360631
        k(   19) = (  -0.1818182   0.5454545  -0.1818182), wk =   0.0360631
        k(   20) = (  -0.2727273   0.6363636  -0.2727273), wk =   0.0360631
        k(   21) = (   0.6363636  -0.2727273   0.6363636), wk =   0.0360631
        k(   22) = (   0.5454545  -0.1818182   0.5454545), wk =   0.0360631
        k(   23) = (   0.4545455  -0.0909091   0.4545455), wk =   0.0360631
        k(   24) = (   0.3636364   0.0000000   0.3636364), wk =   0.0180316
        k(   25) = (   0.0000000   0.5454545   0.0000000), wk =   0.0090158
        k(   26) = (  -0.0909091   0.6363636  -0.0909091), wk =   0.0360631
        k(   27) = (  -0.1818182   0.7272727  -0.1818182), wk =   0.0360631
        k(   28) = (   0.7272727  -0.1818182   0.7272727), wk =   0.0360631
        k(   29) = (   0.6363636  -0.0909091   0.6363636), wk =   0.0360631
        k(   30) = (   0.5454545   0.0000000   0.5454545), wk =   0.0180316
        k(   31) = (   0.0000000   0.7272727   0.0000000), wk =   0.0090158
        k(   32) = (  -0.0909091   0.8181818  -0.0909091), wk =   0.0360631
        k(   33) = (   0.8181818  -0.0909091   0.8181818), wk =   0.0360631
        k(   34) = (   0.7272727   0.0000000   0.7272727), wk =   0.0180316
        k(   35) = (  -0.0000000   0.9090909  -0.0000000), wk =   0.0090158
        k(   36) = (   0.9090909  -0.0000000   0.9090909), wk =   0.0180316
        k(   37) = (  -0.1818182   0.3636364   0.0000000), wk =   0.0360631
        k(   38) = (  -0.2727273   0.4545455  -0.0909091), wk =   0.0721262
        k(   39) = (  -0.3636364   0.5454545  -0.1818182), wk =   0.0721262
        k(   40) = (   0.5454545  -0.3636364   0.7272727), wk =   0.0721262
        k(   41) = (  -0.1818182   0.5454545   0.0000000), wk =   0.0360631
        k(   42) = (  -0.2727273   0.6363636  -0.0909091), wk =   0.0721262
        k(   43) = (   0.6363636  -0.2727273   0.8181818), wk =   0.0721262
        k(   44) = (   0.5454545  -0.1818182   0.7272727), wk =   0.0721262
        k(   45) = (   0.4545455  -0.0909091   0.6363636), wk =   0.0721262
        k(   46) = (   0.3636364   0.0000000   0.5454545), wk =   0.0360631
        k(   47) = (  -0.1818182   0.7272727   0.0000000), wk =   0.0360631
        k(   48) = (   0.7272727  -0.1818182   0.9090909), wk =   0.0721262
        k(   49) = (   0.6363636  -0.0909091   0.8181818), wk =   0.0721262
        k(   50) = (   0.5454545   0.0000000   0.7272727), wk =   0.0360631
        k(   51) = (   0.8181818  -0.0909091   1.0000000), wk =   0.0360631
        k(   52) = (   0.7272727   0.0000000   0.9090909), wk =   0.0360631
        k(   53) = (   0.6363636  -0.2727273   1.0000000), wk =   0.0360631
        k(   54) = (   0.5454545  -0.1818182   0.9090909), wk =   0.0721262
        k(   55) = (   0.6363636  -0.0909091   1.0000000), wk =   0.0360631
        k(   56) = (   0.5454545   0.0000000   0.9090909), wk =   0.0360631

     Dense  grid:    16625 G-vectors     FFT dimensions: (  36,  36,  36)

     Estimated max dynamical RAM per process >      70.74 MB

     Initial potential from superposition of free atoms

     starting charge       7.9988, renormalised to       8.0000
     Starting wfcs are    8 randomized atomic wfcs

     total cpu time spent up to now is        3.2 secs

     Self-consistent Calculation

     iteration #  1     ecut=    60.00 Ry     beta= 0.70
     CG style diagonalization
     ethr =  1.00E-02,  avg # of iterations =  3.0

     Threshold (ethr) on eigenvalues was too large:
     Diagonalizing with lowered threshold

     CG style diagonalization
     ethr =  7.36E-04,  avg # of iterations =  2.0

     total cpu time spent up to now is        9.1 secs

     total energy              =     -19.25704391 Ry
     estimated scf accuracy    <       0.05924754 Ry

     iteration #  2     ecut=    60.00 Ry     beta= 0.70
     CG style diagonalization
     ethr =  7.41E-04,  avg # of iterations =  3.0

     total cpu time spent up to now is       12.3 secs

     total energy              =     -19.26000863 Ry
     estimated scf accuracy    <       0.00197563 Ry

     iteration #  3     ecut=    60.00 Ry     beta= 0.70
     CG style diagonalization
     ethr =  2.47E-05,  avg # of iterations =  4.1

     total cpu time spent up to now is       16.5 secs

     total energy              =     -19.26060219 Ry
     estimated scf accuracy    <       0.00006993 Ry

     iteration #  4     ecut=    60.00 Ry     beta= 0.70
     CG style diagonalization
     ethr =  8.74E-07,  avg # of iterations =  4.3

     total cpu time spent up to now is       20.9 secs

     total energy              =     -19.26063831 Ry
     estimated scf accuracy    <       0.00001492 Ry

     iteration #  5     ecut=    60.00 Ry     beta= 0.70
     CG style diagonalization
     ethr =  1.86E-07,  avg # of iterations =  4.0

     total cpu time spent up to now is       25.0 secs

     total energy              =     -19.26064130 Ry
     estimated scf accuracy    <       0.00000005 Ry

     iteration #  6     ecut=    60.00 Ry     beta= 0.70
     CG style diagonalization
     ethr =  6.67E-10,  avg # of iterations =  5.8

     total cpu time spent up to now is       30.6 secs

     End of self-consistent calculation

          k = 0.0000 0.0000 0.0000 (  2085 PWs)   bands (ev):

    -5.8902   6.1996   6.1996   6.1996

          k =-0.0909 0.0909-0.0909 (  2079 PWs)   bands (ev):

    -5.7802   5.1985   6.0279   6.0279

          k =-0.1818 0.1818-0.1818 (  2082 PWs)   bands (ev):

    -5.4544   3.4963   5.6810   5.6810

          k =-0.2727 0.2727-0.2727 (  2072 PWs)   bands (ev):

    -4.9289   1.8110   5.3537   5.3537

          k =-0.3636 0.3636-0.3636 (  2072 PWs)   bands (ev):

    -4.2538   0.3290   5.1205   5.1205

          k =-0.4545 0.4545-0.4545 (  2072 PWs)   bands (ev):

    -3.6238  -0.7121   5.0019   5.0019

          k = 0.0000 0.1818 0.0000 (  2073 PWs)   bands (ev):

    -5.7434   5.3963   5.6908   5.6908

          k =-0.0909 0.2727-0.0909 (  2075 PWs)   bands (ev):

    -5.4888   4.0113   5.2857   5.4787

          k =-0.1818 0.3636-0.1818 (  2078 PWs)   bands (ev):

    -5.0274   2.3623   4.9626   5.0982

          k =-0.2727 0.4545-0.2727 (  2073 PWs)   bands (ev):

    -4.3927   0.8267   4.7096   4.7753

          k =-0.3636 0.5455-0.3636 (  2085 PWs)   bands (ev):

    -3.7043  -0.3935   4.4057   4.7372

          k = 0.5455-0.3636 0.5455 (  2084 PWs)   bands (ev):

    -3.4237  -0.8080   4.2229   4.8432

          k = 0.4545-0.2727 0.4545 (  2072 PWs)   bands (ev):

    -3.9246  -0.0371   4.1828   5.0763

          k = 0.3636-0.1818 0.3636 (  2074 PWs)   bands (ev):

    -4.6209   1.3186   4.3022   5.4070

          k = 0.2727-0.0909 0.2727 (  2079 PWs)   bands (ev):

    -5.2039   2.8976   4.5996   5.7780

          k = 0.1818 0.0000 0.1818 (  2077 PWs)   bands (ev):

    -5.5980   4.3927   5.1737   6.0573

          k = 0.0000 0.3636 0.0000 (  2061 PWs)   bands (ev):

    -5.3056   3.8912   4.8419   4.8419

          k =-0.0909 0.4545-0.0909 (  2064 PWs)   bands (ev):

    -4.9119   2.7097   4.4165   4.4931

          k =-0.1818 0.5455-0.1818 (  2087 PWs)   bands (ev):

    -4.3298   1.3070   3.8723   4.2947

          k =-0.2727 0.6364-0.2727 (  2091 PWs)   bands (ev):

    -3.6332   0.0395   3.3857   4.2642

          k = 0.6364-0.2727 0.6364 (  2079 PWs)   bands (ev):

    -3.1329  -0.6932   3.0416   4.4000

          k = 0.5455-0.1818 0.5455 (  2076 PWs)   bands (ev):

    -3.4287  -0.2683   2.8808   4.6855

          k = 0.4545-0.0909 0.4545 (  2078 PWs)   bands (ev):

    -4.1187   0.8786   2.9558   5.0824

          k = 0.3636 0.0000 0.3636 (  2073 PWs)   bands (ev):

    -4.7480   2.0950   3.4421   5.5063

          k = 0.0000 0.5455 0.0000 (  2061 PWs)   bands (ev):

    -4.5856   2.2576   4.1080   4.1080

          k =-0.0909 0.6364-0.0909 (  2078 PWs)   bands (ev):

    -4.0629   1.2885   3.5502   3.8732

          k =-0.1818 0.7273-0.1818 (  2092 PWs)   bands (ev):

    -3.3892   0.2381   2.7980   3.8121

          k = 0.7273-0.1818 0.7273 (  2093 PWs)   bands (ev):

    -2.7559  -0.5879   2.2088   3.9283

          k = 0.6364-0.0909 0.6364 (  2090 PWs)   bands (ev):

    -2.8114  -0.5078   1.9127   4.2096

          k = 0.5455 0.0000 0.5455 (  2089 PWs)   bands (ev):

    -3.4637   0.2700   2.0739   4.6217

          k = 0.0000 0.7273 0.0000 (  2076 PWs)   bands (ev):

    -3.5991   0.6201   3.5935   3.5935

          k =-0.0909 0.8182-0.0909 (  2088 PWs)   bands (ev):

    -2.9655  -0.2059   3.0325   3.4872

          k = 0.8182-0.0909 0.8182 (  2093 PWs)   bands (ev):

    -2.2741  -0.9349   2.2191   3.5624

          k = 0.7273 0.0000 0.7273 (  2093 PWs)   bands (ev):

    -2.1996  -0.9740   1.7146   3.8123

          k =-0.0000 0.9091-0.0000 (  2080 PWs)   bands (ev):

    -2.3727  -0.9470   3.3308   3.3308

          k = 0.9091-0.0000 0.9091 (  2084 PWs)   bands (ev):

    -1.7127  -1.6027   2.8627   3.3566

          k =-0.1818 0.3636 0.0000 (  2076 PWs)   bands (ev):

    -5.1650   3.1525   4.3125   5.3650

          k =-0.2727 0.4545-0.0909 (  2080 PWs)   bands (ev):

    -4.6425   1.8081   3.7426   5.0373

          k =-0.3636 0.5455-0.1818 (  2078 PWs)   bands (ev):

    -3.9694   0.4347   3.4879   4.6839

          k = 0.5455-0.3636 0.7273 (  2079 PWs)   bands (ev):

    -3.3353  -0.5739   3.3907   4.4671

          k =-0.1818 0.5455 0.0000 (  2071 PWs)   bands (ev):

    -4.4547   1.8612   3.5822   4.3291

          k =-0.2727 0.6364-0.0909 (  2074 PWs)   bands (ev):

    -3.8244   0.7605   2.9944   4.0034

          k = 0.6364-0.2727 0.8182 (  2080 PWs)   bands (ev):

    -3.1332  -0.2770   2.6038   3.8427

          k = 0.5455-0.1818 0.7273 (  2084 PWs)   bands (ev):

    -2.8557  -0.6397   2.3674   3.9353

          k = 0.4545-0.0909 0.6364 (  2079 PWs)   bands (ev):

    -3.3789   0.0727   2.3496   4.2400

          k = 0.3636 0.0000 0.5455 (  2078 PWs)   bands (ev):

    -4.0706   1.0764   2.7303   4.6679

          k =-0.1818 0.7273 0.0000 (  2087 PWs)   bands (ev):

    -3.4866   0.4816   3.0976   3.5020

          k = 0.7273-0.1818 0.9091 (  2091 PWs)   bands (ev):

    -2.7904  -0.3539   2.4282   3.3170

          k = 0.6364-0.0909 0.8182 (  2091 PWs)   bands (ev):

    -2.3041  -0.8679   1.8868   3.4370

          k = 0.5455 0.0000 0.7273 (  2093 PWs)   bands (ev):

    -2.6995  -0.4607   1.7785   3.7695

          k = 0.8182-0.0909 1.0000 (  2091 PWs)   bands (ev):

    -2.2957  -0.9414   2.9025   3.0274

          k = 0.7273 0.0000 0.9091 (  2089 PWs)   bands (ev):

    -1.7735  -1.3980   2.2091   3.1016

          k = 0.6364-0.2727 1.0000 (  2084 PWs)   bands (ev):

    -3.1665   0.0786   2.3100   3.5173

          k = 0.5455-0.1818 0.9091 (  2089 PWs)   bands (ev):

    -2.5141  -0.6370   2.0217   3.1852

          k = 0.6364-0.0909 1.0000 (  2100 PWs)   bands (ev):

    -2.1004  -0.9812   2.2565   2.6485

          k = 0.5455 0.0000 0.9091 (  2102 PWs)   bands (ev):

    -1.8920  -1.1504   1.9632   2.6866

     highest occupied level (ev):     6.1996

!    total energy              =     -19.26064150 Ry
     estimated scf accuracy    <          3.4E-09 Ry

     The total energy is the sum of the following terms:
     one-electron contribution =       5.18347335 Ry
     hartree contribution      =       1.09842550 Ry
     xc contribution           =      -8.64278178 Ry
     ewald contribution        =     -16.89975857 Ry

     convergence has been achieved in   6 iterations

     Forces acting on atoms (cartesian axes, Ry/au):

     atom    1 type  1   force =    -0.00000000    0.00000000    0.00000000
     atom    2 type  1   force =     0.00000000   -0.00000000    0.00000000

     Total force =     0.000000     Total SCF correction =     0.000000


     Computing stress (Cartesian axis) and pressure

          total   stress  (Ry/bohr**3)                   (kbar)     P=        1.45
   0.00000985  -0.00000000  -0.00000000            1.45       -0.00       -0.00
  -0.00000000   0.00000985   0.00000000           -0.00        1.45        0.00
  -0.00000000   0.00000000   0.00000985           -0.00        0.00        1.45


     Writing all to output data dir ./Si.save/
 
     init_run     :      2.44s CPU      2.55s WALL (       1 calls)
     electrons    :     25.09s CPU     27.46s WALL (       1 calls)
     forces       :      0.38s CPU      0.41s WALL (       1 calls)
     stress       :      2.77s CPU      2.81s WALL (       1 calls)

     Called by init_run:
     wfcinit      :      1.46s CPU      1.53s WALL (       1 calls)
     potinit      :      0.02s CPU      0.02s WALL (       1 calls)
     hinit0       :      0.82s CPU      0.84s WALL (       1 calls)

     Called by electrons:
     c_bands      :     21.03s CPU     23.11s WALL (       7 calls)
     sum_band     :      3.51s CPU      3.71s WALL (       7 calls)
     v_of_rho     :      0.08s CPU      0.08s WALL (       7 calls)
     newd         :      0.53s CPU      0.61s WALL (       7 calls)
     mix_rho      :      0.02s CPU      0.03s WALL (       7 calls)

     Called by c_bands:
     init_us_2    :      2.00s CPU      2.10s WALL (     952 calls)
     init_us_2:cp :      1.98s CPU      2.08s WALL (     952 calls)
     ccgdiagg     :     16.86s CPU     18.19s WALL (     392 calls)
     wfcrot       :      4.35s CPU      4.53s WALL (     336 calls)

     Called by *cgdiagg:
     h_psi        :     16.75s CPU     17.66s WALL (    5076 calls)
     s_psi        :      2.02s CPU      2.39s WALL (    9816 calls)

     Called by h_psi:
     h_psi:calbec :      1.29s CPU      1.37s WALL (    5076 calls)
     vloc_psi     :     13.93s CPU     14.63s WALL (    5076 calls)
     add_vuspsi   :      1.17s CPU      1.34s WALL (    5076 calls)
     hs_1psi      :     14.10s CPU     15.04s WALL (    4740 calls)
     s_1psi       :      2.11s CPU      2.38s WALL (    4740 calls)

     General routines
     calbec       :      2.26s CPU      2.58s WALL (   10488 calls)
     fft          :      0.04s CPU      0.04s WALL (      37 calls)
     ffts         :      0.01s CPU      0.01s WALL (       7 calls)
     fftw         :     13.14s CPU     13.80s WALL (   14184 calls)
 
     Parallel routines
 
     PWSCF        :     31.27s CPU     34.40s WALL

 
   This run was terminated on:  12:14:38   5Mar2022            

=------------------------------------------------------------------------------=
   JOB DONE.
=------------------------------------------------------------------------------=
