
     Program PWSCF v.7.0 starts on  5Mar2022 at 12:12:32 

     This program is part of the open-source Quantum ESPRESSO suite
     for quantum simulation of materials; please cite
         "P. Giannozzi et al., J. Phys.:Condens. Matter 21 395502 (2009);
         "P. Giannozzi et al., J. Phys.:Condens. Matter 29 465901 (2017);
         "P. Giannozzi et al., J. Chem. Phys. 152 154105 (2020);
          URL http://www.quantum-espresso.org", 
     in publications or presentations arising from this work. More details at
     http://www.quantum-espresso.org/quote

     Parallel version (MPI), running on     1 processors

     MPI processes distributed on     1 nodes
     88510 MiB available memory on the printing compute node when the environment starts
 
     Waiting for input...
     Reading input from standard input
Warning: card &CELL ignored
Warning: card  CELL_DYNAMICS = 'BFGS', ignored
Warning: card  PRESS=0.1D0, ignored
Warning: card / ignored

     Current dimensions of program PWSCF are:
     Max number of different atomic species (ntypx) = 10
     Max number of k-points (npk) =  40000
     Max angular momentum in pseudopotentials (lmaxx) =  4

     Subspace diagonalization in iterative solution of the eigenvalue problem:
     a serial algorithm will be used

 
     G-vector sticks info
     --------------------
     sticks:   dense  smooth     PW     G-vecs:    dense   smooth      PW
     Sum         859     859    253                16625    16625    2733
 
     Using Slab Decomposition
 


     bravais-lattice index     =            2
     lattice parameter (alat)  =      10.2000  a.u.
     unit-cell volume          =     265.3020 (a.u.)^3
     number of atoms/cell      =            2
     number of atomic types    =            1
     number of electrons       =         8.00
     number of Kohn-Sham states=            4
     kinetic-energy cutoff     =      60.0000  Ry
     charge density cutoff     =     240.0000  Ry
     scf convergence threshold =      1.0E-08
     mixing beta               =       0.7000
     number of iterations used =            8  plain     mixing
     Exchange-correlation= SLA  PZ   NOGX NOGC
                           (   1   1   0   0   0   0   0)

     celldm(1)=  10.200000  celldm(2)=   0.000000  celldm(3)=   0.000000
     celldm(4)=   0.000000  celldm(5)=   0.000000  celldm(6)=   0.000000

     crystal axes: (cart. coord. in units of alat)
               a(1) = (  -0.500000   0.000000   0.500000 )  
               a(2) = (   0.000000   0.500000   0.500000 )  
               a(3) = (  -0.500000   0.500000   0.000000 )  

     reciprocal axes: (cart. coord. in units 2 pi/alat)
               b(1) = ( -1.000000 -1.000000  1.000000 )  
               b(2) = (  1.000000  1.000000  1.000000 )  
               b(3) = ( -1.000000  1.000000 -1.000000 )  


     PseudoPot. # 1 for Si read from file:
     ./Si_LDA.UPF
     MD5 check sum: b5ade7b37ee992b02096e360e546dc2d
     Pseudo is Ultrasoft + core correction, Zval =  4.0
     Generated by new atomic code, or converted to UPF format
     Using radial grid of  899 points,  6 beta functions with: 
                l(1) =   0
                l(2) =   0
                l(3) =   1
                l(4) =   1
                l(5) =   2
                l(6) =   2
     Q(r) pseudized with  8 coefficients,  rinner =    0.900   0.900   0.900
                                                       0.900   0.900

     atomic species   valence    mass     pseudopotential
        Si             4.00    28.08550     Si( 1.00)

     48 Sym. Ops., with inversion, found (24 have fractional translation)



   Cartesian axes

     site n.     atom                  positions (alat units)
         1           Si  tau(   1) = (   0.0000000   0.0000000   0.0000000  )
         2           Si  tau(   2) = (  -0.2500000   0.2500000   0.2500000  )

     number of k points=    20
                       cart. coord. in units 2pi/alat
        k(    1) = (   0.0000000   0.0000000   0.0000000), wk =   0.0058309
        k(    2) = (  -0.1428571   0.1428571  -0.1428571), wk =   0.0466472
        k(    3) = (  -0.2857143   0.2857143  -0.2857143), wk =   0.0466472
        k(    4) = (  -0.4285714   0.4285714  -0.4285714), wk =   0.0466472
        k(    5) = (   0.0000000   0.2857143   0.0000000), wk =   0.0349854
        k(    6) = (  -0.1428571   0.4285714  -0.1428571), wk =   0.1399417
        k(    7) = (  -0.2857143   0.5714286  -0.2857143), wk =   0.1399417
        k(    8) = (   0.5714286  -0.2857143   0.5714286), wk =   0.1399417
        k(    9) = (   0.4285714  -0.1428571   0.4285714), wk =   0.1399417
        k(   10) = (   0.2857143  -0.0000000   0.2857143), wk =   0.0699708
        k(   11) = (   0.0000000   0.5714286   0.0000000), wk =   0.0349854
        k(   12) = (  -0.1428571   0.7142857  -0.1428571), wk =   0.1399417
        k(   13) = (   0.7142857  -0.1428571   0.7142857), wk =   0.1399417
        k(   14) = (   0.5714286  -0.0000000   0.5714286), wk =   0.0699708
        k(   15) = (   0.0000000   0.8571429   0.0000000), wk =   0.0349854
        k(   16) = (   0.8571429  -0.0000000   0.8571429), wk =   0.0699708
        k(   17) = (  -0.2857143   0.5714286   0.0000000), wk =   0.1399417
        k(   18) = (   0.5714286  -0.2857143   0.8571429), wk =   0.2798834
        k(   19) = (   0.7142857  -0.1428571   1.0000000), wk =   0.1399417
        k(   20) = (   0.5714286  -0.0000000   0.8571429), wk =   0.1399417

     Dense  grid:    16625 G-vectors     FFT dimensions: (  36,  36,  36)

     Estimated max dynamical RAM per process >      66.16 MB

     Initial potential from superposition of free atoms

     starting charge       7.9988, renormalised to       8.0000
     Starting wfcs are    8 randomized atomic wfcs

     total cpu time spent up to now is        2.1 secs

     Self-consistent Calculation

     iteration #  1     ecut=    60.00 Ry     beta= 0.70
     CG style diagonalization
     ethr =  1.00E-02,  avg # of iterations =  3.0

     Threshold (ethr) on eigenvalues was too large:
     Diagonalizing with lowered threshold

     CG style diagonalization
     ethr =  7.41E-04,  avg # of iterations =  2.0

     total cpu time spent up to now is        4.5 secs

     total energy              =     -19.25631154 Ry
     estimated scf accuracy    <       0.05974620 Ry

     iteration #  2     ecut=    60.00 Ry     beta= 0.70
     CG style diagonalization
     ethr =  7.47E-04,  avg # of iterations =  3.0

     total cpu time spent up to now is        5.7 secs

     total energy              =     -19.25929853 Ry
     estimated scf accuracy    <       0.00199105 Ry

     iteration #  3     ecut=    60.00 Ry     beta= 0.70
     CG style diagonalization
     ethr =  2.49E-05,  avg # of iterations =  4.0

     total cpu time spent up to now is        7.3 secs

     total energy              =     -19.25986097 Ry
     estimated scf accuracy    <       0.00006769 Ry

     iteration #  4     ecut=    60.00 Ry     beta= 0.70
     CG style diagonalization
     ethr =  8.46E-07,  avg # of iterations =  4.4

     total cpu time spent up to now is        9.1 secs

     total energy              =     -19.25989733 Ry
     estimated scf accuracy    <       0.00001381 Ry

     iteration #  5     ecut=    60.00 Ry     beta= 0.70
     CG style diagonalization
     ethr =  1.73E-07,  avg # of iterations =  4.0

     total cpu time spent up to now is       10.6 secs

     total energy              =     -19.25990016 Ry
     estimated scf accuracy    <       0.00000006 Ry

     iteration #  6     ecut=    60.00 Ry     beta= 0.70
     CG style diagonalization
     ethr =  7.42E-10,  avg # of iterations =  5.6

     total cpu time spent up to now is       12.7 secs

     End of self-consistent calculation

          k = 0.0000 0.0000 0.0000 (  2085 PWs)   bands (ev):

    -5.8874   6.2035   6.2035   6.2035

          k =-0.1429 0.1429-0.1429 (  2079 PWs)   bands (ev):

    -5.6170   4.2444   5.8388   5.8388

          k =-0.2857 0.2857-0.2857 (  2072 PWs)   bands (ev):

    -4.8367   1.5863   5.3173   5.3173

          k =-0.4286 0.4286-0.4286 (  2066 PWs)   bands (ev):

    -3.7695  -0.4848   5.0272   5.0272

          k = 0.0000 0.2857 0.0000 (  2081 PWs)   bands (ev):

    -5.5257   4.5698   5.2071   5.2071

          k =-0.1429 0.4286-0.1429 (  2079 PWs)   bands (ev):

    -4.9083   2.4077   4.6163   4.6570

          k =-0.2857 0.5714-0.2857 (  2088 PWs)   bands (ev):

    -3.8776   0.1802   3.9148   4.4687

          k = 0.5714-0.2857 0.5714 (  2082 PWs)   bands (ev):

    -3.2998  -0.7087   3.4904   4.6737

          k = 0.4286-0.1429 0.4286 (  2080 PWs)   bands (ev):

    -4.2547   0.8749   3.4873   5.1993

          k = 0.2857-0.0000 0.2857 (  2079 PWs)   bands (ev):

    -5.1734   3.0386   4.1806   5.8040

          k = 0.0000 0.5714 0.0000 (  2061 PWs)   bands (ev):

    -4.4576   2.0257   4.0229   4.0229

          k =-0.1429 0.7143-0.1429 (  2076 PWs)   bands (ev):

    -3.5382   0.5009   3.0072   3.7603

          k = 0.7143-0.1429 0.7143 (  2091 PWs)   bands (ev):

    -2.5936  -0.7086   2.0251   3.9340

          k = 0.5714-0.0000 0.5714 (  2091 PWs)   bands (ev):

    -3.2603   0.0588   1.9444   4.4957

          k = 0.0000 0.8571 0.0000 (  2088 PWs)   bands (ev):

    -2.7424  -0.5073   3.3821   3.3821

          k = 0.8571-0.0000 0.8571 (  2091 PWs)   bands (ev):

    -1.7693  -1.4837   2.4424   3.4453

          k =-0.2857 0.5714 0.0000 (  2068 PWs)   bands (ev):

    -4.1419   1.2712   3.0065   4.3764

          k = 0.5714-0.2857 0.8571 (  2074 PWs)   bands (ev):

    -3.0747  -0.2953   2.4285   3.8207

          k = 0.7143-0.1429 1.0000 (  2095 PWs)   bands (ev):

    -2.5295  -0.5903   2.5117   2.9328

          k = 0.5714-0.0000 0.8571 (  2102 PWs)   bands (ev):

    -2.0767  -0.9966   1.8451   3.0273

     highest occupied level (ev):     6.2035

!    total energy              =     -19.25990033 Ry
     estimated scf accuracy    <          2.5E-09 Ry

     The total energy is the sum of the following terms:
     one-electron contribution =       5.18302922 Ry
     hartree contribution      =       1.10047053 Ry
     xc contribution           =      -8.64364151 Ry
     ewald contribution        =     -16.89975857 Ry

     convergence has been achieved in   6 iterations

     Forces acting on atoms (cartesian axes, Ry/au):

     atom    1 type  1   force =     0.00000000   -0.00000000    0.00000000
     atom    2 type  1   force =     0.00000000    0.00000000    0.00000000

     Total force =     0.000000     Total SCF correction =     0.000000


     Computing stress (Cartesian axis) and pressure

          total   stress  (Ry/bohr**3)                   (kbar)     P=        1.72
   0.00001167  -0.00000000  -0.00000000            1.72       -0.00       -0.00
  -0.00000000   0.00001167   0.00000000           -0.00        1.72        0.00
  -0.00000000   0.00000000   0.00001167           -0.00        0.00        1.72


     Writing all to output data dir ./Si.save/
 
     init_run     :      1.48s CPU      1.54s WALL (       1 calls)
     electrons    :      9.71s CPU     10.58s WALL (       1 calls)
     forces       :      0.22s CPU      0.25s WALL (       1 calls)
     stress       :      1.58s CPU      1.61s WALL (       1 calls)

     Called by init_run:
     wfcinit      :      0.52s CPU      0.54s WALL (       1 calls)
     potinit      :      0.01s CPU      0.02s WALL (       1 calls)
     hinit0       :      0.83s CPU      0.84s WALL (       1 calls)

     Called by electrons:
     c_bands      :      7.46s CPU      8.11s WALL (       7 calls)
     sum_band     :      1.70s CPU      1.81s WALL (       7 calls)
     v_of_rho     :      0.08s CPU      0.08s WALL (       7 calls)
     newd         :      0.54s CPU      0.61s WALL (       7 calls)
     mix_rho      :      0.02s CPU      0.03s WALL (       7 calls)

     Called by c_bands:
     init_us_2    :      0.72s CPU      0.75s WALL (     340 calls)
     init_us_2:cp :      0.71s CPU      0.74s WALL (     340 calls)
     ccgdiagg     :      5.97s CPU      6.35s WALL (     140 calls)
     wfcrot       :      1.54s CPU      1.59s WALL (     120 calls)

     Called by *cgdiagg:
     h_psi        :      5.90s CPU      6.17s WALL (    1799 calls)
     s_psi        :      0.73s CPU      0.84s WALL (    3478 calls)

     Called by h_psi:
     h_psi:calbec :      0.46s CPU      0.49s WALL (    1799 calls)
     vloc_psi     :      4.89s CPU      5.10s WALL (    1799 calls)
     add_vuspsi   :      0.42s CPU      0.47s WALL (    1799 calls)
     hs_1psi      :      4.97s CPU      5.25s WALL (    1679 calls)
     s_1psi       :      0.76s CPU      0.84s WALL (    1679 calls)

     General routines
     calbec       :      0.82s CPU      0.92s WALL (    3718 calls)
     fft          :      0.04s CPU      0.04s WALL (      37 calls)
     ffts         :      0.01s CPU      0.01s WALL (       7 calls)
     fftw         :      4.63s CPU      4.83s WALL (    5038 calls)
 
     Parallel routines
 
     PWSCF        :     13.53s CPU     14.85s WALL

 
   This run was terminated on:  12:12:47   5Mar2022            

=------------------------------------------------------------------------------=
   JOB DONE.
=------------------------------------------------------------------------------=
