
     Program PWSCF v.7.0 starts on 14Mar2022 at 16:50:55 

     This program is part of the open-source Quantum ESPRESSO suite
     for quantum simulation of materials; please cite
         "P. Giannozzi et al., J. Phys.:Condens. Matter 21 395502 (2009);
         "P. Giannozzi et al., J. Phys.:Condens. Matter 29 465901 (2017);
         "P. Giannozzi et al., J. Chem. Phys. 152 154105 (2020);
          URL http://www.quantum-espresso.org", 
     in publications or presentations arising from this work. More details at
     http://www.quantum-espresso.org/quote

     Parallel version (MPI), running on     1 processors

     MPI processes distributed on     1 nodes
     89128 MiB available memory on the printing compute node when the environment starts
 
     Waiting for input...
     Reading input from standard input
Warning: card &CELL ignored
Warning: card  CELL_DYNAMICS = 'BFGS', ignored
Warning: card  PRESS=0.1D0, ignored
Warning: card / ignored

     Current dimensions of program PWSCF are:
     Max number of different atomic species (ntypx) = 10
     Max number of k-points (npk) =  40000
     Max angular momentum in pseudopotentials (lmaxx) =  4
     Message from routine setup:
     using ibrav=0 with symmetry is DISCOURAGED, use correct ibrav instead

     Subspace diagonalization in iterative solution of the eigenvalue problem:
     a serial algorithm will be used

 
     G-vector sticks info
     --------------------
     sticks:   dense  smooth     PW     G-vecs:    dense   smooth      PW
     Sum        1069     433    139                23049     5817    1067
 
     Using Slab Decomposition
 


     bravais-lattice index     =            0
     lattice parameter (alat)  =      10.2050  a.u.
     unit-cell volume          =     262.5168 (a.u.)^3
     number of atoms/cell      =            2
     number of atomic types    =            1
     number of electrons       =         8.00
     number of Kohn-Sham states=            4
     kinetic-energy cutoff     =      30.0000  Ry
     charge density cutoff     =     300.0000  Ry
     scf convergence threshold =      1.0E-08
     mixing beta               =       0.7000
     number of iterations used =            8  plain     mixing
     energy convergence thresh.=      1.0E-04
     force convergence thresh. =      1.0E-03
     Exchange-correlation= SLA  PZ   NOGX NOGC
                           (   1   1   0   0   0   0   0)
     nstep                     =           50


     celldm(1)=  10.205000  celldm(2)=   0.000000  celldm(3)=   0.000000
     celldm(4)=   0.000000  celldm(5)=   0.000000  celldm(6)=   0.000000

     crystal axes: (cart. coord. in units of alat)
               a(1) = (  -0.498000   0.000000   0.498000 )  
               a(2) = (   0.000000   0.498000   0.498000 )  
               a(3) = (  -0.498000   0.498000   0.000000 )  

     reciprocal axes: (cart. coord. in units 2 pi/alat)
               b(1) = ( -1.004016 -1.004016  1.004016 )  
               b(2) = (  1.004016  1.004016  1.004016 )  
               b(3) = ( -1.004016  1.004016 -1.004016 )  


     PseudoPot. # 1 for Si read from file:
     ./Si_LDA.UPF
     MD5 check sum: b5ade7b37ee992b02096e360e546dc2d
     Pseudo is Ultrasoft + core correction, Zval =  4.0
     Generated by new atomic code, or converted to UPF format
     Using radial grid of  899 points,  6 beta functions with: 
                l(1) =   0
                l(2) =   0
                l(3) =   1
                l(4) =   1
                l(5) =   2
                l(6) =   2
     Q(r) pseudized with  8 coefficients,  rinner =    0.900   0.900   0.900
                                                       0.900   0.900

     atomic species   valence    mass     pseudopotential
        Si             4.00    28.08550     Si( 1.00)

     48 Sym. Ops., with inversion, found (24 have fractional translation)



   Cartesian axes

     site n.     atom                  positions (alat units)
         1           Si  tau(   1) = (   0.0000000   0.0000000   0.0000000  )
         2           Si  tau(   2) = (  -0.2490000   0.2490000   0.2490000  )

     number of k points=    29
                       cart. coord. in units 2pi/alat
        k(    1) = (   0.0000000   0.0000000   0.0000000), wk =   0.0039062
        k(    2) = (  -0.1255020   0.1255020  -0.1255020), wk =   0.0312500
        k(    3) = (  -0.2510040   0.2510040  -0.2510040), wk =   0.0312500
        k(    4) = (  -0.3765060   0.3765060  -0.3765060), wk =   0.0312500
        k(    5) = (   0.5020080  -0.5020080   0.5020080), wk =   0.0156250
        k(    6) = (   0.0000000   0.2510040   0.0000000), wk =   0.0234375
        k(    7) = (  -0.1255020   0.3765060  -0.1255020), wk =   0.0937500
        k(    8) = (  -0.2510040   0.5020080  -0.2510040), wk =   0.0937500
        k(    9) = (   0.6275100  -0.3765060   0.6275100), wk =   0.0937500
        k(   10) = (   0.5020080  -0.2510040   0.5020080), wk =   0.0937500
        k(   11) = (   0.3765060  -0.1255020   0.3765060), wk =   0.0937500
        k(   12) = (   0.2510040   0.0000000   0.2510040), wk =   0.0468750
        k(   13) = (   0.0000000   0.5020080   0.0000000), wk =   0.0234375
        k(   14) = (  -0.1255020   0.6275100  -0.1255020), wk =   0.0937500
        k(   15) = (   0.7530120  -0.2510040   0.7530120), wk =   0.0937500
        k(   16) = (   0.6275100  -0.1255020   0.6275100), wk =   0.0937500
        k(   17) = (   0.5020080   0.0000000   0.5020080), wk =   0.0468750
        k(   18) = (   0.0000000   0.7530120   0.0000000), wk =   0.0234375
        k(   19) = (   0.8785141  -0.1255020   0.8785141), wk =   0.0937500
        k(   20) = (   0.7530120   0.0000000   0.7530120), wk =   0.0468750
        k(   21) = (   0.0000000  -1.0040161   0.0000000), wk =   0.0117188
        k(   22) = (  -0.2510040   0.5020080   0.0000000), wk =   0.0937500
        k(   23) = (   0.6275100  -0.3765060   0.8785141), wk =   0.1875000
        k(   24) = (   0.5020080  -0.2510040   0.7530120), wk =   0.0937500
        k(   25) = (   0.7530120  -0.2510040   1.0040161), wk =   0.0937500
        k(   26) = (   0.6275100  -0.1255020   0.8785141), wk =   0.1875000
        k(   27) = (   0.5020080   0.0000000   0.7530120), wk =   0.0937500
        k(   28) = (  -0.2510040  -1.0040161   0.0000000), wk =   0.0468750
        k(   29) = (  -0.5020080  -1.0040161   0.0000000), wk =   0.0234375

     Dense  grid:    23049 G-vectors     FFT dimensions: (  40,  40,  40)

     Smooth grid:     5817 G-vectors     FFT dimensions: (  25,  25,  25)

     Estimated max dynamical RAM per process >      87.66 MB

     Initial potential from superposition of free atoms

     starting charge       7.9988, renormalised to       8.0000
     Starting wfcs are    8 randomized atomic wfcs

     total cpu time spent up to now is        1.9 secs

     Self-consistent Calculation

     iteration #  1     ecut=    30.00 Ry     beta= 0.70
     CG style diagonalization
     ethr =  1.00E-02,  avg # of iterations =  3.0

     Threshold (ethr) on eigenvalues was too large:
     Diagonalizing with lowered threshold

     CG style diagonalization
     ethr =  7.47E-04,  avg # of iterations =  2.0

     total cpu time spent up to now is        3.5 secs

     total energy              =     -19.25632183 Ry
     estimated scf accuracy    <       0.06064702 Ry

     iteration #  2     ecut=    30.00 Ry     beta= 0.70
     CG style diagonalization
     ethr =  7.58E-04,  avg # of iterations =  3.0

     total cpu time spent up to now is        4.4 secs

     total energy              =     -19.25946847 Ry
     estimated scf accuracy    <       0.00196847 Ry

     iteration #  3     ecut=    30.00 Ry     beta= 0.70
     CG style diagonalization
     ethr =  2.46E-05,  avg # of iterations =  4.1

     total cpu time spent up to now is        5.4 secs

     total energy              =     -19.26006159 Ry
     estimated scf accuracy    <       0.00007303 Ry

     iteration #  4     ecut=    30.00 Ry     beta= 0.70
     CG style diagonalization
     ethr =  9.13E-07,  avg # of iterations =  4.3

     total cpu time spent up to now is        6.5 secs

     total energy              =     -19.26009798 Ry
     estimated scf accuracy    <       0.00001540 Ry

     iteration #  5     ecut=    30.00 Ry     beta= 0.70
     CG style diagonalization
     ethr =  1.93E-07,  avg # of iterations =  3.9

     total cpu time spent up to now is        7.6 secs

     total energy              =     -19.26010093 Ry
     estimated scf accuracy    <       0.00000005 Ry

     iteration #  6     ecut=    30.00 Ry     beta= 0.70
     CG style diagonalization
     ethr =  6.46E-10,  avg # of iterations =  5.7

     total cpu time spent up to now is        8.9 secs

     End of self-consistent calculation

          k = 0.0000 0.0000 0.0000 (   725 PWs)   bands (ev):

    -5.8501   6.3137   6.3137   6.3137

          k =-0.1255 0.1255-0.1255 (   724 PWs)   bands (ev):

    -5.6409   4.6887   6.0156   6.0156

          k =-0.2510 0.2510-0.2510 (   733 PWs)   bands (ev):

    -5.0296   2.3126   5.5353   5.5353

          k =-0.3765 0.3765-0.3765 (   745 PWs)   bands (ev):

    -4.1075   0.2423   5.2044   5.2044

          k = 0.5020-0.5020 0.5020 (   718 PWs)   bands (ev):

    -3.4396  -0.8177   5.0917   5.0917

          k = 0.0000 0.2510 0.0000 (   717 PWs)   bands (ev):

    -5.5704   4.9876   5.4775   5.4775

          k =-0.1255 0.3765-0.1255 (   726 PWs)   bands (ev):

    -5.0897   3.0479   4.9538   5.0389

          k =-0.2510 0.5020-0.2510 (   736 PWs)   bands (ev):

    -4.2512   0.9339   4.4327   4.6830

          k = 0.6275-0.3765 0.6275 (   732 PWs)   bands (ev):

    -3.3548  -0.5785   3.9745   4.7126

          k = 0.5020-0.2510 0.5020 (   730 PWs)   bands (ev):

    -3.6111  -0.1933   3.7833   5.0200

          k = 0.3765-0.1255 0.3765 (   733 PWs)   bands (ev):

    -4.5667   1.6114   3.9289   5.5259

          k = 0.2510 0.0000 0.2510 (   737 PWs)   bands (ev):

    -5.2961   3.6014   4.6196   6.0193

          k = 0.0000 0.5020 0.0000 (   729 PWs)   bands (ev):

    -4.7412   2.7853   4.3668   4.3668

          k =-0.1255 0.6275-0.1255 (   728 PWs)   bands (ev):

    -4.0123   1.3287   3.5539   4.0425

          k = 0.7530-0.2510 0.7530 (   724 PWs)   bands (ev):

    -3.0550  -0.1605   2.6613   4.0482

          k = 0.6275-0.1255 0.6275 (   722 PWs)   bands (ev):

    -2.8389  -0.4323   2.1844   4.3773

          k = 0.5020 0.0000 0.5020 (   742 PWs)   bands (ev):

    -3.7500   0.7680   2.4227   4.9537

          k = 0.0000 0.7530 0.0000 (   725 PWs)   bands (ev):

    -3.3958   0.5173   3.6342   3.6342

          k = 0.8785-0.1255 0.8785 (   730 PWs)   bands (ev):

    -2.4734  -0.5901   2.7564   3.5572

          k = 0.7530 0.0000 0.7530 (   724 PWs)   bands (ev):

    -2.0090  -1.0036   1.8455   3.8225

          k = 0.0000-1.0040 0.0000 (   740 PWs)   bands (ev):

    -1.6023  -1.6023   3.3833   3.3833

          k =-0.2510 0.5020 0.0000 (   733 PWs)   bands (ev):

    -4.4864   1.9835   3.5014   4.8461

          k = 0.6275-0.3765 0.8785 (   729 PWs)   bands (ev):

    -3.5707   0.3865   2.8857   4.3224

          k = 0.5020-0.2510 0.7530 (   722 PWs)   bands (ev):

    -2.8896  -0.5976   2.7604   4.0826

          k = 0.7530-0.2510 1.0040 (   728 PWs)   bands (ev):

    -3.1890   0.2948   2.8332   3.4577

          k = 0.6275-0.1255 0.8785 (   723 PWs)   bands (ev):

    -2.2825  -0.6994   2.1022   3.2478

          k = 0.5020 0.0000 0.7530 (   726 PWs)   bands (ev):

    -2.6427  -0.3294   1.9270   3.6388

          k =-0.2510-1.0040 0.0000 (   730 PWs)   bands (ev):

    -1.5169  -1.5169   2.7758   2.7758

          k =-0.5020-1.0040 0.0000 (   724 PWs)   bands (ev):

    -1.4219  -1.4219   2.3118   2.3118

     highest occupied level (ev):     6.3137

!    total energy              =     -19.26010114 Ry
     estimated scf accuracy    <          2.9E-09 Ry

     The total energy is the sum of the following terms:
     one-electron contribution =       5.26544042 Ry
     hartree contribution      =       1.09032852 Ry
     xc contribution           =      -8.65655439 Ry
     ewald contribution        =     -16.95931570 Ry

     convergence has been achieved in   6 iterations

     Forces acting on atoms (cartesian axes, Ry/au):

     atom    1 type  1   force =     0.00000000    0.00000000    0.00000000
     atom    2 type  1   force =    -0.00000000   -0.00000000   -0.00000000

     Total force =     0.000000     Total SCF correction =     0.000000


     Computing stress (Cartesian axis) and pressure

          total   stress  (Ry/bohr**3)                   (kbar)     P=       12.05
   0.00008192  -0.00000000   0.00000000           12.05       -0.00        0.00
   0.00000000   0.00008192   0.00000000            0.00       12.05        0.00
   0.00000000  -0.00000000   0.00008192            0.00       -0.00       12.05

     Energy error            =      5.4E-05 Ry
     Gradient error          =      8.3E-33 Ry/Bohr

     bfgs converged in   2 scf cycles and   1 bfgs steps
     (criteria: energy <  1.0E-04 Ry, force <  1.0E-03 Ry/Bohr)

     End of BFGS Geometry Optimization

     Final energy             =     -19.2601011434 Ry

     File ./Si_elastic_isotropic.bfgs deleted, as requested
Begin final coordinates

ATOMIC_POSITIONS (crystal)
Si            0.0000000000        0.0000000000        0.0000000000
Si            0.2500000000        0.2500000000        0.2500000000
End final coordinates



     Writing all to output data dir ./Si_elastic_isotropic.save/
 
     init_run     :      1.25s CPU      1.31s WALL (       1 calls)
     electrons    :      6.10s CPU      6.97s WALL (       1 calls)
     forces       :      0.23s CPU      0.26s WALL (       1 calls)
     stress       :      1.61s CPU      1.64s WALL (       1 calls)

     Called by init_run:
     wfcinit      :      0.28s CPU      0.29s WALL (       1 calls)
     potinit      :      0.02s CPU      0.03s WALL (       1 calls)
     hinit0       :      0.80s CPU      0.81s WALL (       1 calls)

     Called by electrons:
     c_bands      :      3.86s CPU      4.52s WALL (       7 calls)
     sum_band     :      1.46s CPU      1.56s WALL (       7 calls)
     v_of_rho     :      0.11s CPU      0.11s WALL (       7 calls)
     newd         :      0.75s CPU      0.84s WALL (       7 calls)
     mix_rho      :      0.02s CPU      0.03s WALL (       7 calls)

     Called by c_bands:
     init_us_2    :      0.36s CPU      0.40s WALL (     493 calls)
     init_us_2:cp :      0.35s CPU      0.39s WALL (     493 calls)
     ccgdiagg     :      3.04s CPU      3.33s WALL (     203 calls)
     wfcrot       :      0.79s CPU      0.82s WALL (     174 calls)

     Called by *cgdiagg:
     h_psi        :      2.99s CPU      3.22s WALL (    2611 calls)
     s_psi        :      0.27s CPU      0.30s WALL (    5048 calls)

     Called by h_psi:
     h_psi:calbec :      0.27s CPU      0.28s WALL (    2611 calls)
     vloc_psi     :      2.41s CPU      2.60s WALL (    2611 calls)
     add_vuspsi   :      0.18s CPU      0.20s WALL (    2611 calls)
     hs_1psi      :      2.56s CPU      2.80s WALL (    2437 calls)
     s_1psi       :      0.33s CPU      0.37s WALL (    2437 calls)

     General routines
     calbec       :      0.40s CPU      0.44s WALL (    5396 calls)
     fft          :      0.06s CPU      0.07s WALL (      49 calls)
     ffts         :      0.01s CPU      0.01s WALL (      14 calls)
     fftw         :      2.32s CPU      2.50s WALL (    7310 calls)
     interpolate  :      0.02s CPU      0.02s WALL (       7 calls)
 
     Parallel routines
 
     PWSCF        :      9.72s CPU     11.15s WALL

 
   This run was terminated on:  16:51: 6  14Mar2022            

=------------------------------------------------------------------------------=
   JOB DONE.
=------------------------------------------------------------------------------=
