
     Program PWSCF v.7.0 starts on 14Mar2022 at 16:51:20 

     This program is part of the open-source Quantum ESPRESSO suite
     for quantum simulation of materials; please cite
         "P. Giannozzi et al., J. Phys.:Condens. Matter 21 395502 (2009);
         "P. Giannozzi et al., J. Phys.:Condens. Matter 29 465901 (2017);
         "P. Giannozzi et al., J. Chem. Phys. 152 154105 (2020);
          URL http://www.quantum-espresso.org", 
     in publications or presentations arising from this work. More details at
     http://www.quantum-espresso.org/quote

     Parallel version (MPI), running on     1 processors

     MPI processes distributed on     1 nodes
     89130 MiB available memory on the printing compute node when the environment starts
 
     Waiting for input...
     Reading input from standard input
Warning: card &CELL ignored
Warning: card  CELL_DYNAMICS = 'BFGS', ignored
Warning: card  PRESS=0.1D0, ignored
Warning: card / ignored

     Current dimensions of program PWSCF are:
     Max number of different atomic species (ntypx) = 10
     Max number of k-points (npk) =  40000
     Max angular momentum in pseudopotentials (lmaxx) =  4
     Message from routine setup:
     using ibrav=0 with symmetry is DISCOURAGED, use correct ibrav instead

     Subspace diagonalization in iterative solution of the eigenvalue problem:
     a serial algorithm will be used

 
     G-vector sticks info
     --------------------
     sticks:   dense  smooth     PW     G-vecs:    dense   smooth      PW
     Sum        1069     433    139                23289     5961    1067
 
     Using Slab Decomposition
 


     bravais-lattice index     =            0
     lattice parameter (alat)  =      10.2050  a.u.
     unit-cell volume          =     265.6923 (a.u.)^3
     number of atoms/cell      =            2
     number of atomic types    =            1
     number of electrons       =         8.00
     number of Kohn-Sham states=            4
     kinetic-energy cutoff     =      30.0000  Ry
     charge density cutoff     =     300.0000  Ry
     scf convergence threshold =      1.0E-08
     mixing beta               =       0.7000
     number of iterations used =            8  plain     mixing
     energy convergence thresh.=      1.0E-04
     force convergence thresh. =      1.0E-03
     Exchange-correlation= SLA  PZ   NOGX NOGC
                           (   1   1   0   0   0   0   0)
     nstep                     =           50


     celldm(1)=  10.205000  celldm(2)=   0.000000  celldm(3)=   0.000000
     celldm(4)=   0.000000  celldm(5)=   0.000000  celldm(6)=   0.000000

     crystal axes: (cart. coord. in units of alat)
               a(1) = (  -0.500000   0.000000   0.500000 )  
               a(2) = (   0.000000   0.500000   0.500000 )  
               a(3) = (  -0.500000   0.500000   0.000000 )  

     reciprocal axes: (cart. coord. in units 2 pi/alat)
               b(1) = ( -1.000000 -1.000000  1.000000 )  
               b(2) = (  1.000000  1.000000  1.000000 )  
               b(3) = ( -1.000000  1.000000 -1.000000 )  


     PseudoPot. # 1 for Si read from file:
     ./Si_LDA.UPF
     MD5 check sum: b5ade7b37ee992b02096e360e546dc2d
     Pseudo is Ultrasoft + core correction, Zval =  4.0
     Generated by new atomic code, or converted to UPF format
     Using radial grid of  899 points,  6 beta functions with: 
                l(1) =   0
                l(2) =   0
                l(3) =   1
                l(4) =   1
                l(5) =   2
                l(6) =   2
     Q(r) pseudized with  8 coefficients,  rinner =    0.900   0.900   0.900
                                                       0.900   0.900

     atomic species   valence    mass     pseudopotential
        Si             4.00    28.08550     Si( 1.00)

     48 Sym. Ops., with inversion, found (24 have fractional translation)



   Cartesian axes

     site n.     atom                  positions (alat units)
         1           Si  tau(   1) = (   0.0000000   0.0000000   0.0000000  )
         2           Si  tau(   2) = (  -0.2500000   0.2500000   0.2500000  )

     number of k points=    29
                       cart. coord. in units 2pi/alat
        k(    1) = (   0.0000000   0.0000000   0.0000000), wk =   0.0039062
        k(    2) = (  -0.1250000   0.1250000  -0.1250000), wk =   0.0312500
        k(    3) = (  -0.2500000   0.2500000  -0.2500000), wk =   0.0312500
        k(    4) = (  -0.3750000   0.3750000  -0.3750000), wk =   0.0312500
        k(    5) = (   0.5000000  -0.5000000   0.5000000), wk =   0.0156250
        k(    6) = (   0.0000000   0.2500000   0.0000000), wk =   0.0234375
        k(    7) = (  -0.1250000   0.3750000  -0.1250000), wk =   0.0937500
        k(    8) = (  -0.2500000   0.5000000  -0.2500000), wk =   0.0937500
        k(    9) = (   0.6250000  -0.3750000   0.6250000), wk =   0.0937500
        k(   10) = (   0.5000000  -0.2500000   0.5000000), wk =   0.0937500
        k(   11) = (   0.3750000  -0.1250000   0.3750000), wk =   0.0937500
        k(   12) = (   0.2500000   0.0000000   0.2500000), wk =   0.0468750
        k(   13) = (   0.0000000   0.5000000   0.0000000), wk =   0.0234375
        k(   14) = (  -0.1250000   0.6250000  -0.1250000), wk =   0.0937500
        k(   15) = (   0.7500000  -0.2500000   0.7500000), wk =   0.0937500
        k(   16) = (   0.6250000  -0.1250000   0.6250000), wk =   0.0937500
        k(   17) = (   0.5000000   0.0000000   0.5000000), wk =   0.0468750
        k(   18) = (   0.0000000   0.7500000   0.0000000), wk =   0.0234375
        k(   19) = (   0.8750000  -0.1250000   0.8750000), wk =   0.0937500
        k(   20) = (   0.7500000   0.0000000   0.7500000), wk =   0.0468750
        k(   21) = (   0.0000000  -1.0000000   0.0000000), wk =   0.0117188
        k(   22) = (  -0.2500000   0.5000000   0.0000000), wk =   0.0937500
        k(   23) = (   0.6250000  -0.3750000   0.8750000), wk =   0.1875000
        k(   24) = (   0.5000000  -0.2500000   0.7500000), wk =   0.0937500
        k(   25) = (   0.7500000  -0.2500000   1.0000000), wk =   0.0937500
        k(   26) = (   0.6250000  -0.1250000   0.8750000), wk =   0.1875000
        k(   27) = (   0.5000000   0.0000000   0.7500000), wk =   0.0937500
        k(   28) = (  -0.2500000  -1.0000000   0.0000000), wk =   0.0468750
        k(   29) = (  -0.5000000  -1.0000000   0.0000000), wk =   0.0234375

     Dense  grid:    23289 G-vectors     FFT dimensions: (  40,  40,  40)

     Smooth grid:     5961 G-vectors     FFT dimensions: (  25,  25,  25)

     Estimated max dynamical RAM per process >      88.52 MB

     Initial potential from superposition of free atoms

     starting charge       7.9988, renormalised to       8.0000
     Starting wfcs are    8 randomized atomic wfcs

     total cpu time spent up to now is        1.9 secs

     Self-consistent Calculation

     iteration #  1     ecut=    30.00 Ry     beta= 0.70
     CG style diagonalization
     ethr =  1.00E-02,  avg # of iterations =  3.0

     Threshold (ethr) on eigenvalues was too large:
     Diagonalizing with lowered threshold

     CG style diagonalization
     ethr =  7.32E-04,  avg # of iterations =  2.0

     total cpu time spent up to now is        3.5 secs

     total energy              =     -19.25663112 Ry
     estimated scf accuracy    <       0.05938435 Ry

     iteration #  2     ecut=    30.00 Ry     beta= 0.70
     CG style diagonalization
     ethr =  7.42E-04,  avg # of iterations =  3.0

     total cpu time spent up to now is        4.4 secs

     total energy              =     -19.25961805 Ry
     estimated scf accuracy    <       0.00197392 Ry

     iteration #  3     ecut=    30.00 Ry     beta= 0.70
     CG style diagonalization
     ethr =  2.47E-05,  avg # of iterations =  4.0

     total cpu time spent up to now is        5.4 secs

     total energy              =     -19.26019724 Ry
     estimated scf accuracy    <       0.00007089 Ry

     iteration #  4     ecut=    30.00 Ry     beta= 0.70
     CG style diagonalization
     ethr =  8.86E-07,  avg # of iterations =  4.3

     total cpu time spent up to now is        6.5 secs

     total energy              =     -19.26023340 Ry
     estimated scf accuracy    <       0.00001510 Ry

     iteration #  5     ecut=    30.00 Ry     beta= 0.70
     CG style diagonalization
     ethr =  1.89E-07,  avg # of iterations =  3.9

     total cpu time spent up to now is        7.6 secs

     total energy              =     -19.26023632 Ry
     estimated scf accuracy    <       0.00000005 Ry

     iteration #  6     ecut=    30.00 Ry     beta= 0.70
     CG style diagonalization
     ethr =  6.62E-10,  avg # of iterations =  5.7

     total cpu time spent up to now is        8.9 secs

     End of self-consistent calculation

          k = 0.0000 0.0000 0.0000 (   725 PWs)   bands (ev):

    -5.8940   6.1861   6.1861   6.1861

          k =-0.1250 0.1250-0.1250 (   734 PWs)   bands (ev):

    -5.6869   4.5655   5.8915   5.8915

          k =-0.2500 0.2500-0.2500 (   745 PWs)   bands (ev):

    -5.0821   2.2079   5.4155   5.4155

          k =-0.3750 0.3750-0.3750 (   748 PWs)   bands (ev):

    -4.1713   0.1580   5.0868   5.0868

          k = 0.5000-0.5000 0.5000 (   754 PWs)   bands (ev):

    -3.5145  -0.8876   4.9747   4.9747

          k = 0.0000 0.2500 0.0000 (   737 PWs)   bands (ev):

    -5.6172   4.8489   5.3611   5.3611

          k =-0.1250 0.3750-0.1250 (   738 PWs)   bands (ev):

    -5.1415   2.9305   4.8425   4.9197

          k =-0.2500 0.5000-0.2500 (   736 PWs)   bands (ev):

    -4.3126   0.8386   4.3180   4.5734

          k = 0.6250-0.3750 0.6250 (   738 PWs)   bands (ev):

    -3.4294  -0.6546   3.8648   4.6014

          k = 0.5000-0.2500 0.5000 (   745 PWs)   bands (ev):

    -3.6813  -0.2749   3.6774   4.9047

          k = 0.3750-0.1250 0.3750 (   741 PWs)   bands (ev):

    -4.6243   1.5087   3.8251   5.4048

          k = 0.2500 0.0000 0.2500 (   753 PWs)   bands (ev):

    -5.3457   3.4787   4.5138   5.8930

          k = 0.0000 0.5000 0.0000 (   729 PWs)   bands (ev):

    -4.7965   2.6556   4.2619   4.2619

          k =-0.1250 0.6250-0.1250 (   734 PWs)   bands (ev):

    -4.0754   1.2147   3.4571   3.9404

          k = 0.7500-0.2500 0.7500 (   735 PWs)   bands (ev):

    -3.1305  -0.2547   2.5730   3.9454

          k = 0.6250-0.1250 0.6250 (   731 PWs)   bands (ev):

    -2.9187  -0.5214   2.1025   4.2704

          k = 0.5000 0.0000 0.5000 (   742 PWs)   bands (ev):

    -3.8170   0.6629   2.3416   4.8398

          k = 0.0000 0.7500 0.0000 (   741 PWs)   bands (ev):

    -3.4650   0.4073   3.5362   3.5362

          k = 0.8750-0.1250 0.8750 (   739 PWs)   bands (ev):

    -2.5531  -0.6894   2.6722   3.4597

          k = 0.7500 0.0000 0.7500 (   740 PWs)   bands (ev):

    -2.0981  -1.0962   1.7751   3.7220

          k = 0.0000-1.0000 0.0000 (   740 PWs)   bands (ev):

    -1.6905  -1.6905   3.2876   3.2876

          k =-0.2500 0.5000 0.0000 (   737 PWs)   bands (ev):

    -4.5446   1.8671   3.4076   4.7332

          k = 0.6250-0.3750 0.8750 (   738 PWs)   bands (ev):

    -3.6399   0.2891   2.7934   4.2178

          k = 0.5000-0.2500 0.7500 (   740 PWs)   bands (ev):

    -2.9697  -0.6798   2.6664   3.9820

          k = 0.7500-0.2500 1.0000 (   734 PWs)   bands (ev):

    -3.2613   0.1869   2.7469   3.3656

          k = 0.6250-0.1250 0.8750 (   731 PWs)   bands (ev):

    -2.3674  -0.7958   2.0263   3.1583

          k = 0.5000 0.0000 0.7500 (   732 PWs)   bands (ev):

    -2.7235  -0.4291   1.8537   3.5439

          k =-0.2500-1.0000 0.0000 (   742 PWs)   bands (ev):

    -1.6076  -1.6076   2.6915   2.6915

          k =-0.5000-1.0000 0.0000 (   724 PWs)   bands (ev):

    -1.5158  -1.5158   2.2359   2.2359

     highest occupied level (ev):     6.1861

!    total energy              =     -19.26023651 Ry
     estimated scf accuracy    <          3.2E-09 Ry

     The total energy is the sum of the following terms:
     one-electron contribution =       5.17219487 Ry
     hartree contribution      =       1.10056871 Ry
     xc contribution           =      -8.64152166 Ry
     ewald contribution        =     -16.89147843 Ry

     convergence has been achieved in   6 iterations

     Forces acting on atoms (cartesian axes, Ry/au):

     atom    1 type  1   force =     0.00000000    0.00000000    0.00000000
     atom    2 type  1   force =     0.00000000    0.00000000    0.00000000

     Total force =     0.000000     Total SCF correction =     0.000000


     Computing stress (Cartesian axis) and pressure

          total   stress  (Ry/bohr**3)                   (kbar)     P=        0.11
   0.00000073   0.00000000  -0.00000000            0.11        0.00       -0.00
  -0.00000000   0.00000073   0.00000000           -0.00        0.11        0.00
  -0.00000000   0.00000000   0.00000073           -0.00        0.00        0.11


     BFGS Geometry Optimization
     Energy error            =      0.0E+00 Ry
     Gradient error          =      0.0E+00 Ry/Bohr

     bfgs converged in   1 scf cycles and   0 bfgs steps
     (criteria: energy <  1.0E-04 Ry, force <  1.0E-03 Ry/Bohr)

     End of BFGS Geometry Optimization

     Final energy             =     -19.2602365074 Ry
Begin final coordinates

ATOMIC_POSITIONS (crystal)
Si            0.0000000000        0.0000000000        0.0000000000
Si            0.2500000000        0.2500000000        0.2500000000
End final coordinates



     Writing all to output data dir ./Si_elastic_isotropic.save/
 
     init_run     :      1.24s CPU      1.29s WALL (       1 calls)
     electrons    :      6.15s CPU      7.02s WALL (       1 calls)
     forces       :      0.23s CPU      0.24s WALL (       1 calls)
     stress       :      1.68s CPU      1.71s WALL (       1 calls)

     Called by init_run:
     wfcinit      :      0.26s CPU      0.28s WALL (       1 calls)
     potinit      :      0.02s CPU      0.03s WALL (       1 calls)
     hinit0       :      0.80s CPU      0.81s WALL (       1 calls)

     Called by electrons:
     c_bands      :      3.90s CPU      4.55s WALL (       7 calls)
     sum_band     :      1.47s CPU      1.58s WALL (       7 calls)
     v_of_rho     :      0.11s CPU      0.11s WALL (       7 calls)
     newd         :      0.75s CPU      0.84s WALL (       7 calls)
     mix_rho      :      0.02s CPU      0.03s WALL (       7 calls)

     Called by c_bands:
     init_us_2    :      0.37s CPU      0.40s WALL (     493 calls)
     init_us_2:cp :      0.36s CPU      0.40s WALL (     493 calls)
     ccgdiagg     :      3.10s CPU      3.36s WALL (     203 calls)
     wfcrot       :      0.77s CPU      0.82s WALL (     174 calls)

     Called by *cgdiagg:
     h_psi        :      3.00s CPU      3.22s WALL (    2607 calls)
     s_psi        :      0.28s CPU      0.31s WALL (    5040 calls)

     Called by h_psi:
     h_psi:calbec :      0.26s CPU      0.28s WALL (    2607 calls)
     vloc_psi     :      2.42s CPU      2.60s WALL (    2607 calls)
     add_vuspsi   :      0.19s CPU      0.20s WALL (    2607 calls)
     hs_1psi      :      2.60s CPU      2.80s WALL (    2433 calls)
     s_1psi       :      0.35s CPU      0.38s WALL (    2433 calls)

     General routines
     calbec       :      0.41s CPU      0.45s WALL (    5388 calls)
     fft          :      0.07s CPU      0.07s WALL (      49 calls)
     ffts         :      0.01s CPU      0.01s WALL (      14 calls)
     fftw         :      2.33s CPU      2.49s WALL (    7302 calls)
     interpolate  :      0.01s CPU      0.02s WALL (       7 calls)
 
     Parallel routines
 
     PWSCF        :      9.82s CPU     11.20s WALL

 
   This run was terminated on:  16:51:31  14Mar2022            

=------------------------------------------------------------------------------=
   JOB DONE.
=------------------------------------------------------------------------------=
