
     Program PWSCF v.7.0 starts on 14Mar2022 at 16:51:58 

     This program is part of the open-source Quantum ESPRESSO suite
     for quantum simulation of materials; please cite
         "P. Giannozzi et al., J. Phys.:Condens. Matter 21 395502 (2009);
         "P. Giannozzi et al., J. Phys.:Condens. Matter 29 465901 (2017);
         "P. Giannozzi et al., J. Chem. Phys. 152 154105 (2020);
          URL http://www.quantum-espresso.org", 
     in publications or presentations arising from this work. More details at
     http://www.quantum-espresso.org/quote

     Parallel version (MPI), running on     1 processors

     MPI processes distributed on     1 nodes
     89127 MiB available memory on the printing compute node when the environment starts
 
     Waiting for input...
     Reading input from standard input
Warning: card &CELL ignored
Warning: card  CELL_DYNAMICS = 'BFGS', ignored
Warning: card  PRESS=0.1D0, ignored
Warning: card / ignored

     Current dimensions of program PWSCF are:
     Max number of different atomic species (ntypx) = 10
     Max number of k-points (npk) =  40000
     Max angular momentum in pseudopotentials (lmaxx) =  4
     Message from routine setup:
     using ibrav=0 with symmetry is DISCOURAGED, use correct ibrav instead

     Subspace diagonalization in iterative solution of the eigenvalue problem:
     a serial algorithm will be used

 
     G-vector sticks info
     --------------------
     sticks:   dense  smooth     PW     G-vecs:    dense   smooth      PW
     Sum        1075     433    151                23589     5985    1139
 
     Using Slab Decomposition
 


     bravais-lattice index     =            0
     lattice parameter (alat)  =      10.2050  a.u.
     unit-cell volume          =     270.5036 (a.u.)^3
     number of atoms/cell      =            2
     number of atomic types    =            1
     number of electrons       =         8.00
     number of Kohn-Sham states=            4
     kinetic-energy cutoff     =      30.0000  Ry
     charge density cutoff     =     300.0000  Ry
     scf convergence threshold =      1.0E-08
     mixing beta               =       0.7000
     number of iterations used =            8  plain     mixing
     energy convergence thresh.=      1.0E-04
     force convergence thresh. =      1.0E-03
     Exchange-correlation= SLA  PZ   NOGX NOGC
                           (   1   1   0   0   0   0   0)
     nstep                     =           50


     celldm(1)=  10.205000  celldm(2)=   0.000000  celldm(3)=   0.000000
     celldm(4)=   0.000000  celldm(5)=   0.000000  celldm(6)=   0.000000

     crystal axes: (cart. coord. in units of alat)
               a(1) = (  -0.503000   0.000000   0.503000 )  
               a(2) = (   0.000000   0.503000   0.503000 )  
               a(3) = (  -0.503000   0.503000   0.000000 )  

     reciprocal axes: (cart. coord. in units 2 pi/alat)
               b(1) = ( -0.994036 -0.994036  0.994036 )  
               b(2) = (  0.994036  0.994036  0.994036 )  
               b(3) = ( -0.994036  0.994036 -0.994036 )  


     PseudoPot. # 1 for Si read from file:
     ./Si_LDA.UPF
     MD5 check sum: b5ade7b37ee992b02096e360e546dc2d
     Pseudo is Ultrasoft + core correction, Zval =  4.0
     Generated by new atomic code, or converted to UPF format
     Using radial grid of  899 points,  6 beta functions with: 
                l(1) =   0
                l(2) =   0
                l(3) =   1
                l(4) =   1
                l(5) =   2
                l(6) =   2
     Q(r) pseudized with  8 coefficients,  rinner =    0.900   0.900   0.900
                                                       0.900   0.900

     atomic species   valence    mass     pseudopotential
        Si             4.00    28.08550     Si( 1.00)

     48 Sym. Ops., with inversion, found (24 have fractional translation)



   Cartesian axes

     site n.     atom                  positions (alat units)
         1           Si  tau(   1) = (   0.0000000   0.0000000   0.0000000  )
         2           Si  tau(   2) = (  -0.2515000   0.2515000   0.2515000  )

     number of k points=    29
                       cart. coord. in units 2pi/alat
        k(    1) = (   0.0000000   0.0000000   0.0000000), wk =   0.0039062
        k(    2) = (  -0.1242545   0.1242545  -0.1242545), wk =   0.0312500
        k(    3) = (  -0.2485089   0.2485089  -0.2485089), wk =   0.0312500
        k(    4) = (  -0.3727634   0.3727634  -0.3727634), wk =   0.0312500
        k(    5) = (   0.4970179  -0.4970179   0.4970179), wk =   0.0156250
        k(    6) = (   0.0000000   0.2485089   0.0000000), wk =   0.0234375
        k(    7) = (  -0.1242545   0.3727634  -0.1242545), wk =   0.0937500
        k(    8) = (  -0.2485089   0.4970179  -0.2485089), wk =   0.0937500
        k(    9) = (   0.6212724  -0.3727634   0.6212724), wk =   0.0937500
        k(   10) = (   0.4970179  -0.2485089   0.4970179), wk =   0.0937500
        k(   11) = (   0.3727634  -0.1242545   0.3727634), wk =   0.0937500
        k(   12) = (   0.2485089   0.0000000   0.2485089), wk =   0.0468750
        k(   13) = (   0.0000000   0.4970179   0.0000000), wk =   0.0234375
        k(   14) = (  -0.1242545   0.6212724  -0.1242545), wk =   0.0937500
        k(   15) = (   0.7455268  -0.2485089   0.7455268), wk =   0.0937500
        k(   16) = (   0.6212724  -0.1242545   0.6212724), wk =   0.0937500
        k(   17) = (   0.4970179   0.0000000   0.4970179), wk =   0.0468750
        k(   18) = (   0.0000000   0.7455268   0.0000000), wk =   0.0234375
        k(   19) = (   0.8697813  -0.1242545   0.8697813), wk =   0.0937500
        k(   20) = (   0.7455268   0.0000000   0.7455268), wk =   0.0468750
        k(   21) = (   0.0000000  -0.9940358   0.0000000), wk =   0.0117188
        k(   22) = (  -0.2485089   0.4970179   0.0000000), wk =   0.0937500
        k(   23) = (   0.6212724  -0.3727634   0.8697813), wk =   0.1875000
        k(   24) = (   0.4970179  -0.2485089   0.7455268), wk =   0.0937500
        k(   25) = (   0.7455268  -0.2485089   0.9940358), wk =   0.0937500
        k(   26) = (   0.6212724  -0.1242545   0.8697813), wk =   0.1875000
        k(   27) = (   0.4970179   0.0000000   0.7455268), wk =   0.0937500
        k(   28) = (  -0.2485089  -0.9940358  -0.0000000), wk =   0.0468750
        k(   29) = (  -0.4970179  -0.9940358   0.0000000), wk =   0.0234375

     Dense  grid:    23589 G-vectors     FFT dimensions: (  45,  45,  45)

     Smooth grid:     5985 G-vectors     FFT dimensions: (  25,  25,  25)

     Estimated max dynamical RAM per process >      91.46 MB

     Initial potential from superposition of free atoms

     starting charge       7.9988, renormalised to       8.0000
     Starting wfcs are    8 randomized atomic wfcs

     total cpu time spent up to now is        1.9 secs

     Self-consistent Calculation

     iteration #  1     ecut=    30.00 Ry     beta= 0.70
     CG style diagonalization
     ethr =  1.00E-02,  avg # of iterations =  2.9

     Threshold (ethr) on eigenvalues was too large:
     Diagonalizing with lowered threshold

     CG style diagonalization
     ethr =  7.10E-04,  avg # of iterations =  2.0

     total cpu time spent up to now is        3.5 secs

     total energy              =     -19.25659361 Ry
     estimated scf accuracy    <       0.05761016 Ry

     iteration #  2     ecut=    30.00 Ry     beta= 0.70
     CG style diagonalization
     ethr =  7.20E-04,  avg # of iterations =  3.0

     total cpu time spent up to now is        4.5 secs

     total energy              =     -19.25937927 Ry
     estimated scf accuracy    <       0.00197542 Ry

     iteration #  3     ecut=    30.00 Ry     beta= 0.70
     CG style diagonalization
     ethr =  2.47E-05,  avg # of iterations =  4.0

     total cpu time spent up to now is        5.5 secs

     total energy              =     -19.25993267 Ry
     estimated scf accuracy    <       0.00006594 Ry

     iteration #  4     ecut=    30.00 Ry     beta= 0.70
     CG style diagonalization
     ethr =  8.24E-07,  avg # of iterations =  4.3

     total cpu time spent up to now is        6.7 secs

     total energy              =     -19.25996562 Ry
     estimated scf accuracy    <       0.00001341 Ry

     iteration #  5     ecut=    30.00 Ry     beta= 0.70
     CG style diagonalization
     ethr =  1.68E-07,  avg # of iterations =  3.9

     total cpu time spent up to now is        7.7 secs

     total energy              =     -19.25996830 Ry
     estimated scf accuracy    <       0.00000007 Ry

     iteration #  6     ecut=    30.00 Ry     beta= 0.70
     CG style diagonalization
     ethr =  8.26E-10,  avg # of iterations =  5.4

     total cpu time spent up to now is        9.0 secs

     End of self-consistent calculation

          k = 0.0000 0.0000 0.0000 (   749 PWs)   bands (ev):

    -5.9587   5.9982   5.9982   5.9982

          k =-0.1243 0.1243-0.1243 (   743 PWs)   bands (ev):

    -5.7547   4.3831   5.7088   5.7088

          k =-0.2485 0.2485-0.2485 (   754 PWs)   bands (ev):

    -5.1596   2.0529   5.2392   5.2392

          k =-0.3728 0.3728-0.3728 (   763 PWs)   bands (ev):

    -4.2653   0.0334   4.9137   4.9137

          k = 0.4970-0.4970 0.4970 (   754 PWs)   bands (ev):

    -3.6248  -0.9911   4.8025   4.8025

          k = 0.0000 0.2485 0.0000 (   761 PWs)   bands (ev):

    -5.6860   4.6434   5.1896   5.1896

          k =-0.1243 0.3728-0.1243 (   757 PWs)   bands (ev):

    -5.2178   2.7565   4.6786   4.7444

          k =-0.2485 0.4970-0.2485 (   746 PWs)   bands (ev):

    -4.4029   0.6975   4.1493   4.4120

          k = 0.6213-0.3728 0.6213 (   753 PWs)   bands (ev):

    -3.5393  -0.7673   3.7033   4.4377

          k = 0.4970-0.2485 0.4970 (   756 PWs)   bands (ev):

    -3.7849  -0.3958   3.5216   4.7349

          k = 0.3728-0.1243 0.3728 (   754 PWs)   bands (ev):

    -4.7093   1.3566   3.6725   5.2265

          k = 0.2485 0.0000 0.2485 (   753 PWs)   bands (ev):

    -5.4188   3.2969   4.3580   5.7070

          k = 0.0000 0.4970 0.0000 (   729 PWs)   bands (ev):

    -4.8779   2.4638   4.1075   4.1075

          k =-0.1243 0.6213-0.1243 (   751 PWs)   bands (ev):

    -4.1685   1.0460   3.3147   3.7901

          k = 0.7455-0.2485 0.7455 (   748 PWs)   bands (ev):

    -3.2418  -0.3942   2.4433   3.7941

          k = 0.6213-0.1243 0.6213 (   748 PWs)   bands (ev):

    -3.0363  -0.6534   1.9822   4.1131

          k = 0.4970 0.0000 0.4970 (   754 PWs)   bands (ev):

    -3.9159   0.5074   2.2224   4.6721

          k = 0.0000 0.7455 0.0000 (   753 PWs)   bands (ev):

    -3.5671   0.2450   3.3921   3.3921

          k = 0.8698-0.1243 0.8698 (   751 PWs)   bands (ev):

    -2.6707  -0.8360   2.5481   3.3162

          k = 0.7455 0.0000 0.7455 (   740 PWs)   bands (ev):

    -2.2294  -1.2328   1.6714   3.5741

          k = 0.0000-0.9940 0.0000 (   740 PWs)   bands (ev):

    -1.8205  -1.8205   3.1468   3.1468

          k =-0.2485 0.4970 0.0000 (   755 PWs)   bands (ev):

    -4.6304   1.6950   3.2694   4.5671

          k = 0.6213-0.3728 0.8698 (   753 PWs)   bands (ev):

    -3.7420   0.1450   2.6578   4.0637

          k = 0.4970-0.2485 0.7455 (   750 PWs)   bands (ev):

    -3.0877  -0.8016   2.5283   3.8337

          k = 0.7455-0.2485 0.9940 (   755 PWs)   bands (ev):

    -3.3680   0.0275   2.6200   3.2297

          k = 0.6213-0.1243 0.8698 (   748 PWs)   bands (ev):

    -2.4925  -0.9382   1.9146   3.0264

          k = 0.4970 0.0000 0.7455 (   747 PWs)   bands (ev):

    -2.8425  -0.5761   1.7459   3.4041

          k =-0.2485-0.9940-0.0000 (   746 PWs)   bands (ev):

    -1.7414  -1.7414   2.5674   2.5674

          k =-0.4970-0.9940 0.0000 (   744 PWs)   bands (ev):

    -1.6542  -1.6542   2.1240   2.1240

     highest occupied level (ev):     5.9982

!    total energy              =     -19.25996848 Ry
     estimated scf accuracy    <          2.7E-09 Ry

     The total energy is the sum of the following terms:
     one-electron contribution =       5.03413339 Ry
     hartree contribution      =       1.11596403 Ry
     xc contribution           =      -8.61933187 Ry
     ewald contribution        =     -16.79073403 Ry

     convergence has been achieved in   6 iterations

     Forces acting on atoms (cartesian axes, Ry/au):

     atom    1 type  1   force =     0.00000000    0.00000000   -0.00000000
     atom    2 type  1   force =    -0.00000000   -0.00000000   -0.00000000

     Total force =     0.000000     Total SCF correction =     0.000000


     Computing stress (Cartesian axis) and pressure

          total   stress  (Ry/bohr**3)                   (kbar)     P=      -16.60
  -0.00011287  -0.00000000  -0.00000000          -16.60       -0.00       -0.00
  -0.00000000  -0.00011287  -0.00000000           -0.00      -16.60       -0.00
  -0.00000000   0.00000000  -0.00011287           -0.00        0.00      -16.60


     BFGS Geometry Optimization
     Energy error            =      0.0E+00 Ry
     Gradient error          =      9.8E-32 Ry/Bohr

     bfgs converged in   1 scf cycles and   0 bfgs steps
     (criteria: energy <  1.0E-04 Ry, force <  1.0E-03 Ry/Bohr)

     End of BFGS Geometry Optimization

     Final energy             =     -19.2599684754 Ry
Begin final coordinates

ATOMIC_POSITIONS (crystal)
Si            0.0000000000        0.0000000000        0.0000000000
Si            0.2500000000        0.2500000000        0.2500000000
End final coordinates



     Writing all to output data dir ./Si_elastic_isotropic.save/
 
     init_run     :      1.25s CPU      1.32s WALL (       1 calls)
     electrons    :      6.23s CPU      7.13s WALL (       1 calls)
     forces       :      0.25s CPU      0.27s WALL (       1 calls)
     stress       :      1.65s CPU      1.69s WALL (       1 calls)

     Called by init_run:
     wfcinit      :      0.26s CPU      0.28s WALL (       1 calls)
     potinit      :      0.04s CPU      0.04s WALL (       1 calls)
     hinit0       :      0.80s CPU      0.82s WALL (       1 calls)

     Called by electrons:
     c_bands      :      3.85s CPU      4.53s WALL (       7 calls)
     sum_band     :      1.51s CPU      1.62s WALL (       7 calls)
     v_of_rho     :      0.16s CPU      0.17s WALL (       7 calls)
     newd         :      0.77s CPU      0.87s WALL (       7 calls)
     mix_rho      :      0.03s CPU      0.04s WALL (       7 calls)

     Called by c_bands:
     init_us_2    :      0.36s CPU      0.41s WALL (     493 calls)
     init_us_2:cp :      0.34s CPU      0.40s WALL (     493 calls)
     ccgdiagg     :      3.05s CPU      3.32s WALL (     203 calls)
     wfcrot       :      0.78s CPU      0.82s WALL (     174 calls)

     Called by *cgdiagg:
     h_psi        :      2.98s CPU      3.21s WALL (    2574 calls)
     s_psi        :      0.27s CPU      0.30s WALL (    4974 calls)

     Called by h_psi:
     h_psi:calbec :      0.26s CPU      0.28s WALL (    2574 calls)
     vloc_psi     :      2.40s CPU      2.59s WALL (    2574 calls)
     add_vuspsi   :      0.19s CPU      0.20s WALL (    2574 calls)
     hs_1psi      :      2.57s CPU      2.78s WALL (    2400 calls)
     s_1psi       :      0.34s CPU      0.37s WALL (    2400 calls)

     General routines
     calbec       :      0.40s CPU      0.44s WALL (    5322 calls)
     fft          :      0.12s CPU      0.12s WALL (      49 calls)
     ffts         :      0.01s CPU      0.01s WALL (      14 calls)
     fftw         :      2.32s CPU      2.49s WALL (    7236 calls)
     interpolate  :      0.03s CPU      0.03s WALL (       7 calls)
 
     Parallel routines
 
     PWSCF        :      9.91s CPU     11.35s WALL

 
   This run was terminated on:  16:52: 9  14Mar2022            

=------------------------------------------------------------------------------=
   JOB DONE.
=------------------------------------------------------------------------------=
