
     Program PWSCF v.7.0 starts on 14Mar2022 at 16:51: 8 

     This program is part of the open-source Quantum ESPRESSO suite
     for quantum simulation of materials; please cite
         "P. Giannozzi et al., J. Phys.:Condens. Matter 21 395502 (2009);
         "P. Giannozzi et al., J. Phys.:Condens. Matter 29 465901 (2017);
         "P. Giannozzi et al., J. Chem. Phys. 152 154105 (2020);
          URL http://www.quantum-espresso.org", 
     in publications or presentations arising from this work. More details at
     http://www.quantum-espresso.org/quote

     Parallel version (MPI), running on     1 processors

     MPI processes distributed on     1 nodes
     89131 MiB available memory on the printing compute node when the environment starts
 
     Waiting for input...
     Reading input from standard input
Warning: card &CELL ignored
Warning: card  CELL_DYNAMICS = 'BFGS', ignored
Warning: card  PRESS=0.1D0, ignored
Warning: card / ignored

     Current dimensions of program PWSCF are:
     Max number of different atomic species (ntypx) = 10
     Max number of k-points (npk) =  40000
     Max angular momentum in pseudopotentials (lmaxx) =  4
     Message from routine setup:
     using ibrav=0 with symmetry is DISCOURAGED, use correct ibrav instead

     Subspace diagonalization in iterative solution of the eigenvalue problem:
     a serial algorithm will be used

 
     G-vector sticks info
     --------------------
     sticks:   dense  smooth     PW     G-vecs:    dense   smooth      PW
     Sum        1069     433    139                23289     5961    1067
 
     Using Slab Decomposition
 


     bravais-lattice index     =            0
     lattice parameter (alat)  =      10.2050  a.u.
     unit-cell volume          =     264.1014 (a.u.)^3
     number of atoms/cell      =            2
     number of atomic types    =            1
     number of electrons       =         8.00
     number of Kohn-Sham states=            4
     kinetic-energy cutoff     =      30.0000  Ry
     charge density cutoff     =     300.0000  Ry
     scf convergence threshold =      1.0E-08
     mixing beta               =       0.7000
     number of iterations used =            8  plain     mixing
     energy convergence thresh.=      1.0E-04
     force convergence thresh. =      1.0E-03
     Exchange-correlation= SLA  PZ   NOGX NOGC
                           (   1   1   0   0   0   0   0)
     nstep                     =           50


     celldm(1)=  10.205000  celldm(2)=   0.000000  celldm(3)=   0.000000
     celldm(4)=   0.000000  celldm(5)=   0.000000  celldm(6)=   0.000000

     crystal axes: (cart. coord. in units of alat)
               a(1) = (  -0.499000   0.000000   0.499000 )  
               a(2) = (   0.000000   0.499000   0.499000 )  
               a(3) = (  -0.499000   0.499000   0.000000 )  

     reciprocal axes: (cart. coord. in units 2 pi/alat)
               b(1) = ( -1.002004 -1.002004  1.002004 )  
               b(2) = (  1.002004  1.002004  1.002004 )  
               b(3) = ( -1.002004  1.002004 -1.002004 )  


     PseudoPot. # 1 for Si read from file:
     ./Si_LDA.UPF
     MD5 check sum: b5ade7b37ee992b02096e360e546dc2d
     Pseudo is Ultrasoft + core correction, Zval =  4.0
     Generated by new atomic code, or converted to UPF format
     Using radial grid of  899 points,  6 beta functions with: 
                l(1) =   0
                l(2) =   0
                l(3) =   1
                l(4) =   1
                l(5) =   2
                l(6) =   2
     Q(r) pseudized with  8 coefficients,  rinner =    0.900   0.900   0.900
                                                       0.900   0.900

     atomic species   valence    mass     pseudopotential
        Si             4.00    28.08550     Si( 1.00)

     48 Sym. Ops., with inversion, found (24 have fractional translation)



   Cartesian axes

     site n.     atom                  positions (alat units)
         1           Si  tau(   1) = (   0.0000000   0.0000000   0.0000000  )
         2           Si  tau(   2) = (  -0.2495000   0.2495000   0.2495000  )

     number of k points=    29
                       cart. coord. in units 2pi/alat
        k(    1) = (   0.0000000   0.0000000   0.0000000), wk =   0.0039062
        k(    2) = (  -0.1252505   0.1252505  -0.1252505), wk =   0.0312500
        k(    3) = (  -0.2505010   0.2505010  -0.2505010), wk =   0.0312500
        k(    4) = (  -0.3757515   0.3757515  -0.3757515), wk =   0.0312500
        k(    5) = (   0.5010020  -0.5010020   0.5010020), wk =   0.0156250
        k(    6) = (   0.0000000   0.2505010   0.0000000), wk =   0.0234375
        k(    7) = (  -0.1252505   0.3757515  -0.1252505), wk =   0.0937500
        k(    8) = (  -0.2505010   0.5010020  -0.2505010), wk =   0.0937500
        k(    9) = (   0.6262525  -0.3757515   0.6262525), wk =   0.0937500
        k(   10) = (   0.5010020  -0.2505010   0.5010020), wk =   0.0937500
        k(   11) = (   0.3757515  -0.1252505   0.3757515), wk =   0.0937500
        k(   12) = (   0.2505010   0.0000000   0.2505010), wk =   0.0468750
        k(   13) = (   0.0000000   0.5010020   0.0000000), wk =   0.0234375
        k(   14) = (  -0.1252505   0.6262525  -0.1252505), wk =   0.0937500
        k(   15) = (   0.7515030  -0.2505010   0.7515030), wk =   0.0937500
        k(   16) = (   0.6262525  -0.1252505   0.6262525), wk =   0.0937500
        k(   17) = (   0.5010020   0.0000000   0.5010020), wk =   0.0468750
        k(   18) = (   0.0000000   0.7515030   0.0000000), wk =   0.0234375
        k(   19) = (   0.8767535  -0.1252505   0.8767535), wk =   0.0937500
        k(   20) = (   0.7515030   0.0000000   0.7515030), wk =   0.0468750
        k(   21) = (   0.0000000  -1.0020040   0.0000000), wk =   0.0117188
        k(   22) = (  -0.2505010   0.5010020   0.0000000), wk =   0.0937500
        k(   23) = (   0.6262525  -0.3757515   0.8767535), wk =   0.1875000
        k(   24) = (   0.5010020  -0.2505010   0.7515030), wk =   0.0937500
        k(   25) = (   0.7515030  -0.2505010   1.0020040), wk =   0.0937500
        k(   26) = (   0.6262525  -0.1252505   0.8767535), wk =   0.1875000
        k(   27) = (   0.5010020   0.0000000   0.7515030), wk =   0.0937500
        k(   28) = (  -0.2505010  -1.0020040  -0.0000000), wk =   0.0468750
        k(   29) = (  -0.5010020  -1.0020040   0.0000000), wk =   0.0234375

     Dense  grid:    23289 G-vectors     FFT dimensions: (  40,  40,  40)

     Smooth grid:     5961 G-vectors     FFT dimensions: (  25,  25,  25)

     Estimated max dynamical RAM per process >      88.51 MB

     Initial potential from superposition of free atoms

     starting charge       7.9988, renormalised to       8.0000
     Starting wfcs are    8 randomized atomic wfcs

     total cpu time spent up to now is        1.9 secs

     Self-consistent Calculation

     iteration #  1     ecut=    30.00 Ry     beta= 0.70
     CG style diagonalization
     ethr =  1.00E-02,  avg # of iterations =  3.0

     Threshold (ethr) on eigenvalues was too large:
     Diagonalizing with lowered threshold

     CG style diagonalization
     ethr =  7.40E-04,  avg # of iterations =  2.0

     total cpu time spent up to now is        3.5 secs

     total energy              =     -19.25649063 Ry
     estimated scf accuracy    <       0.06003662 Ry

     iteration #  2     ecut=    30.00 Ry     beta= 0.70
     CG style diagonalization
     ethr =  7.50E-04,  avg # of iterations =  3.0

     total cpu time spent up to now is        4.4 secs

     total energy              =     -19.25956959 Ry
     estimated scf accuracy    <       0.00196950 Ry

     iteration #  3     ecut=    30.00 Ry     beta= 0.70
     CG style diagonalization
     ethr =  2.46E-05,  avg # of iterations =  4.1

     total cpu time spent up to now is        5.5 secs

     total energy              =     -19.26016054 Ry
     estimated scf accuracy    <       0.00007211 Ry

     iteration #  4     ecut=    30.00 Ry     beta= 0.70
     CG style diagonalization
     ethr =  9.01E-07,  avg # of iterations =  4.3

     total cpu time spent up to now is        6.6 secs

     total energy              =     -19.26019610 Ry
     estimated scf accuracy    <       0.00001545 Ry

     iteration #  5     ecut=    30.00 Ry     beta= 0.70
     CG style diagonalization
     ethr =  1.93E-07,  avg # of iterations =  4.0

     total cpu time spent up to now is        7.6 secs

     total energy              =     -19.26019908 Ry
     estimated scf accuracy    <       0.00000005 Ry

     iteration #  6     ecut=    30.00 Ry     beta= 0.70
     CG style diagonalization
     ethr =  6.81E-10,  avg # of iterations =  5.7

     total cpu time spent up to now is        8.9 secs

     End of self-consistent calculation

          k = 0.0000 0.0000 0.0000 (   725 PWs)   bands (ev):

    -5.8722   6.2497   6.2497   6.2497

          k =-0.1253 0.1253-0.1253 (   728 PWs)   bands (ev):

    -5.6640   4.6269   5.9533   5.9533

          k =-0.2505 0.2505-0.2505 (   745 PWs)   bands (ev):

    -5.0560   2.2601   5.4752   5.4752

          k =-0.3758 0.3758-0.3758 (   745 PWs)   bands (ev):

    -4.1396   0.2000   5.1453   5.1453

          k = 0.5010-0.5010 0.5010 (   754 PWs)   bands (ev):

    -3.4772  -0.8528   5.0329   5.0329

          k = 0.0000 0.2505 0.0000 (   729 PWs)   bands (ev):

    -5.5939   4.9180   5.4190   5.4190

          k =-0.1253 0.3758-0.1253 (   732 PWs)   bands (ev):

    -5.1157   2.9890   4.8979   4.9790

          k =-0.2505 0.5010-0.2505 (   736 PWs)   bands (ev):

    -4.2820   0.8861   4.3751   4.6280

          k = 0.6263-0.3758 0.6263 (   732 PWs)   bands (ev):

    -3.3922  -0.6167   3.9194   4.6567

          k = 0.5010-0.2505 0.5010 (   735 PWs)   bands (ev):

    -3.6463  -0.2342   3.7301   4.9621

          k = 0.3758-0.1253 0.3758 (   737 PWs)   bands (ev):

    -4.5956   1.5599   3.8768   5.4651

          k = 0.2505 0.0000 0.2505 (   737 PWs)   bands (ev):

    -5.3210   3.5399   4.5665   5.9559

          k = 0.0000 0.5010 0.0000 (   729 PWs)   bands (ev):

    -4.7690   2.7202   4.3141   4.3141

          k =-0.1253 0.6263-0.1253 (   728 PWs)   bands (ev):

    -4.0440   1.2715   3.5053   3.9912

          k = 0.7515-0.2505 0.7515 (   735 PWs)   bands (ev):

    -3.0929  -0.2078   2.6170   3.9966

          k = 0.6263-0.1253 0.6263 (   728 PWs)   bands (ev):

    -2.8790  -0.4770   2.1433   4.3237

          k = 0.5010 0.0000 0.5010 (   742 PWs)   bands (ev):

    -3.7836   0.7152   2.3820   4.8965

          k = 0.0000 0.7515 0.0000 (   733 PWs)   bands (ev):

    -3.4306   0.4621   3.5850   3.5850

          k = 0.8768-0.1253 0.8768 (   737 PWs)   bands (ev):

    -2.5134  -0.6400   2.7141   3.5082

          k = 0.7515 0.0000 0.7515 (   724 PWs)   bands (ev):

    -2.0538  -1.0501   1.8102   3.7720

          k = 0.0000-1.0020 0.0000 (   740 PWs)   bands (ev):

    -1.6466  -1.6466   3.3352   3.3352

          k =-0.2505 0.5010 0.0000 (   737 PWs)   bands (ev):

    -4.5156   1.9251   3.4543   4.7894

          k = 0.6263-0.3758 0.8768 (   734 PWs)   bands (ev):

    -3.6055   0.3376   2.8393   4.2699

          k = 0.5010-0.2505 0.7515 (   722 PWs)   bands (ev):

    -2.9299  -0.6388   2.7132   4.0321

          k = 0.7515-0.2505 1.0020 (   734 PWs)   bands (ev):

    -3.2253   0.2407   2.7899   3.4115

          k = 0.6263-0.1253 0.8768 (   726 PWs)   bands (ev):

    -2.3251  -0.7478   2.0640   3.2029

          k = 0.5010 0.0000 0.7515 (   732 PWs)   bands (ev):

    -2.6833  -0.3794   1.8902   3.5911

          k =-0.2505-1.0020-0.0000 (   730 PWs)   bands (ev):

    -1.5625  -1.5625   2.7335   2.7335

          k =-0.5010-1.0020 0.0000 (   724 PWs)   bands (ev):

    -1.4691  -1.4691   2.2737   2.2737

     highest occupied level (ev):     6.2497

!    total energy              =     -19.26019930 Ry
     estimated scf accuracy    <          2.9E-09 Ry

     The total energy is the sum of the following terms:
     one-electron contribution =       5.21869359 Ry
     hartree contribution      =       1.09545085 Ry
     xc contribution           =      -8.64901465 Ry
     ewald contribution        =     -16.92532909 Ry

     convergence has been achieved in   6 iterations

     Forces acting on atoms (cartesian axes, Ry/au):

     atom    1 type  1   force =    -0.00000000    0.00000000    0.00000000
     atom    2 type  1   force =    -0.00000000   -0.00000000   -0.00000000

     Total force =     0.000000     Total SCF correction =     0.000000


     Computing stress (Cartesian axis) and pressure

          total   stress  (Ry/bohr**3)                   (kbar)     P=        6.00
   0.00004078   0.00000000   0.00000000            6.00        0.00        0.00
   0.00000000   0.00004078  -0.00000000            0.00        6.00       -0.00
   0.00000000  -0.00000000   0.00004078            0.00       -0.00        6.00


     BFGS Geometry Optimization
     Energy error            =      0.0E+00 Ry
     Gradient error          =      4.1E-32 Ry/Bohr

     bfgs converged in   1 scf cycles and   0 bfgs steps
     (criteria: energy <  1.0E-04 Ry, force <  1.0E-03 Ry/Bohr)

     End of BFGS Geometry Optimization

     Final energy             =     -19.2601992988 Ry
Begin final coordinates

ATOMIC_POSITIONS (crystal)
Si            0.0000000000        0.0000000000        0.0000000000
Si            0.2500000000        0.2500000000        0.2500000000
End final coordinates



     Writing all to output data dir ./Si_elastic_isotropic.save/
 
     init_run     :      1.23s CPU      1.30s WALL (       1 calls)
     electrons    :      6.09s CPU      7.04s WALL (       1 calls)
     forces       :      0.23s CPU      0.25s WALL (       1 calls)
     stress       :      1.62s CPU      1.65s WALL (       1 calls)

     Called by init_run:
     wfcinit      :      0.26s CPU      0.28s WALL (       1 calls)
     potinit      :      0.02s CPU      0.03s WALL (       1 calls)
     hinit0       :      0.79s CPU      0.81s WALL (       1 calls)

     Called by electrons:
     c_bands      :      3.86s CPU      4.58s WALL (       7 calls)
     sum_band     :      1.46s CPU      1.57s WALL (       7 calls)
     v_of_rho     :      0.11s CPU      0.11s WALL (       7 calls)
     newd         :      0.74s CPU      0.83s WALL (       7 calls)
     mix_rho      :      0.02s CPU      0.03s WALL (       7 calls)

     Called by c_bands:
     init_us_2    :      0.36s CPU      0.40s WALL (     493 calls)
     init_us_2:cp :      0.35s CPU      0.39s WALL (     493 calls)
     ccgdiagg     :      3.06s CPU      3.37s WALL (     203 calls)
     wfcrot       :      0.77s CPU      0.83s WALL (     174 calls)

     Called by *cgdiagg:
     h_psi        :      2.97s CPU      3.23s WALL (    2608 calls)
     s_psi        :      0.28s CPU      0.33s WALL (    5042 calls)

     Called by h_psi:
     h_psi:calbec :      0.26s CPU      0.28s WALL (    2608 calls)
     vloc_psi     :      2.39s CPU      2.61s WALL (    2608 calls)
     add_vuspsi   :      0.18s CPU      0.20s WALL (    2608 calls)
     hs_1psi      :      2.56s CPU      2.81s WALL (    2434 calls)
     s_1psi       :      0.35s CPU      0.39s WALL (    2434 calls)

     General routines
     calbec       :      0.40s CPU      0.45s WALL (    5390 calls)
     fft          :      0.06s CPU      0.07s WALL (      49 calls)
     ffts         :      0.01s CPU      0.01s WALL (      14 calls)
     fftw         :      2.31s CPU      2.51s WALL (    7304 calls)
     interpolate  :      0.02s CPU      0.02s WALL (       7 calls)
 
     Parallel routines
 
     PWSCF        :      9.71s CPU     11.19s WALL

 
   This run was terminated on:  16:51:19  14Mar2022            

=------------------------------------------------------------------------------=
   JOB DONE.
=------------------------------------------------------------------------------=
