
     Program PWSCF v.7.0 starts on 14Mar2022 at 16:50:42 

     This program is part of the open-source Quantum ESPRESSO suite
     for quantum simulation of materials; please cite
         "P. Giannozzi et al., J. Phys.:Condens. Matter 21 395502 (2009);
         "P. Giannozzi et al., J. Phys.:Condens. Matter 29 465901 (2017);
         "P. Giannozzi et al., J. Chem. Phys. 152 154105 (2020);
          URL http://www.quantum-espresso.org", 
     in publications or presentations arising from this work. More details at
     http://www.quantum-espresso.org/quote

     Parallel version (MPI), running on     1 processors

     MPI processes distributed on     1 nodes
     89174 MiB available memory on the printing compute node when the environment starts
 
     Waiting for input...
     Reading input from standard input
Warning: card &CELL ignored
Warning: card  CELL_DYNAMICS = 'BFGS', ignored
Warning: card  PRESS=0.1D0, ignored
Warning: card / ignored

     Current dimensions of program PWSCF are:
     Max number of different atomic species (ntypx) = 10
     Max number of k-points (npk) =  40000
     Max angular momentum in pseudopotentials (lmaxx) =  4
     Message from routine setup:
     using ibrav=0 with symmetry is DISCOURAGED, use correct ibrav instead

     Subspace diagonalization in iterative solution of the eigenvalue problem:
     a serial algorithm will be used

 
     G-vector sticks info
     --------------------
     sticks:   dense  smooth     PW     G-vecs:    dense   smooth      PW
     Sum        1069     433    139                22995     5817    1067
 
     Using Slab Decomposition
 


     bravais-lattice index     =            0
     lattice parameter (alat)  =      10.2050  a.u.
     unit-cell volume          =     260.9385 (a.u.)^3
     number of atoms/cell      =            2
     number of atomic types    =            1
     number of electrons       =         8.00
     number of Kohn-Sham states=            4
     kinetic-energy cutoff     =      30.0000  Ry
     charge density cutoff     =     300.0000  Ry
     scf convergence threshold =      1.0E-08
     mixing beta               =       0.7000
     number of iterations used =            8  plain     mixing
     energy convergence thresh.=      1.0E-04
     force convergence thresh. =      1.0E-03
     Exchange-correlation= SLA  PZ   NOGX NOGC
                           (   1   1   0   0   0   0   0)
     nstep                     =           50


     celldm(1)=  10.205000  celldm(2)=   0.000000  celldm(3)=   0.000000
     celldm(4)=   0.000000  celldm(5)=   0.000000  celldm(6)=   0.000000

     crystal axes: (cart. coord. in units of alat)
               a(1) = (  -0.497000   0.000000   0.497000 )  
               a(2) = (   0.000000   0.497000   0.497000 )  
               a(3) = (  -0.497000   0.497000   0.000000 )  

     reciprocal axes: (cart. coord. in units 2 pi/alat)
               b(1) = ( -1.006036 -1.006036  1.006036 )  
               b(2) = (  1.006036  1.006036  1.006036 )  
               b(3) = ( -1.006036  1.006036 -1.006036 )  


     PseudoPot. # 1 for Si read from file:
     ./Si_LDA.UPF
     MD5 check sum: b5ade7b37ee992b02096e360e546dc2d
     Pseudo is Ultrasoft + core correction, Zval =  4.0
     Generated by new atomic code, or converted to UPF format
     Using radial grid of  899 points,  6 beta functions with: 
                l(1) =   0
                l(2) =   0
                l(3) =   1
                l(4) =   1
                l(5) =   2
                l(6) =   2
     Q(r) pseudized with  8 coefficients,  rinner =    0.900   0.900   0.900
                                                       0.900   0.900

     atomic species   valence    mass     pseudopotential
        Si             4.00    28.08550     Si( 1.00)

     48 Sym. Ops., with inversion, found (24 have fractional translation)



   Cartesian axes

     site n.     atom                  positions (alat units)
         1           Si  tau(   1) = (   0.0000000   0.0000000   0.0000000  )
         2           Si  tau(   2) = (  -0.2485000   0.2485000   0.2485000  )

     number of k points=    29
                       cart. coord. in units 2pi/alat
        k(    1) = (   0.0000000   0.0000000   0.0000000), wk =   0.0039062
        k(    2) = (  -0.1257545   0.1257545  -0.1257545), wk =   0.0312500
        k(    3) = (  -0.2515091   0.2515091  -0.2515091), wk =   0.0312500
        k(    4) = (  -0.3772636   0.3772636  -0.3772636), wk =   0.0312500
        k(    5) = (   0.5030181  -0.5030181   0.5030181), wk =   0.0156250
        k(    6) = (   0.0000000   0.2515091   0.0000000), wk =   0.0234375
        k(    7) = (  -0.1257545   0.3772636  -0.1257545), wk =   0.0937500
        k(    8) = (  -0.2515091   0.5030181  -0.2515091), wk =   0.0937500
        k(    9) = (   0.6287726  -0.3772636   0.6287726), wk =   0.0937500
        k(   10) = (   0.5030181  -0.2515091   0.5030181), wk =   0.0937500
        k(   11) = (   0.3772636  -0.1257545   0.3772636), wk =   0.0937500
        k(   12) = (   0.2515091   0.0000000   0.2515091), wk =   0.0468750
        k(   13) = (   0.0000000   0.5030181   0.0000000), wk =   0.0234375
        k(   14) = (  -0.1257545   0.6287726  -0.1257545), wk =   0.0937500
        k(   15) = (   0.7545272  -0.2515091   0.7545272), wk =   0.0937500
        k(   16) = (   0.6287726  -0.1257545   0.6287726), wk =   0.0937500
        k(   17) = (   0.5030181   0.0000000   0.5030181), wk =   0.0468750
        k(   18) = (   0.0000000   0.7545272   0.0000000), wk =   0.0234375
        k(   19) = (   0.8802817  -0.1257545   0.8802817), wk =   0.0937500
        k(   20) = (   0.7545272   0.0000000   0.7545272), wk =   0.0468750
        k(   21) = (   0.0000000  -1.0060362   0.0000000), wk =   0.0117188
        k(   22) = (  -0.2515091   0.5030181   0.0000000), wk =   0.0937500
        k(   23) = (   0.6287726  -0.3772636   0.8802817), wk =   0.1875000
        k(   24) = (   0.5030181  -0.2515091   0.7545272), wk =   0.0937500
        k(   25) = (   0.7545272  -0.2515091   1.0060362), wk =   0.0937500
        k(   26) = (   0.6287726  -0.1257545   0.8802817), wk =   0.1875000
        k(   27) = (   0.5030181   0.0000000   0.7545272), wk =   0.0937500
        k(   28) = (  -0.2515091  -1.0060362  -0.0000000), wk =   0.0468750
        k(   29) = (  -0.5030181  -1.0060362   0.0000000), wk =   0.0234375

     Dense  grid:    22995 G-vectors     FFT dimensions: (  40,  40,  40)

     Smooth grid:     5817 G-vectors     FFT dimensions: (  25,  25,  25)

     Estimated max dynamical RAM per process >      87.46 MB

     Initial potential from superposition of free atoms

     starting charge       7.9988, renormalised to       8.0000
     Starting wfcs are    8 randomized atomic wfcs

     total cpu time spent up to now is        2.7 secs

     Self-consistent Calculation

     iteration #  1     ecut=    30.00 Ry     beta= 0.70
     CG style diagonalization
     ethr =  1.00E-02,  avg # of iterations =  3.0

     Threshold (ethr) on eigenvalues was too large:
     Diagonalizing with lowered threshold

     CG style diagonalization
     ethr =  7.54E-04,  avg # of iterations =  2.0

     total cpu time spent up to now is        4.3 secs

     total energy              =     -19.25607322 Ry
     estimated scf accuracy    <       0.06125076 Ry

     iteration #  2     ecut=    30.00 Ry     beta= 0.70
     CG style diagonalization
     ethr =  7.66E-04,  avg # of iterations =  3.0

     total cpu time spent up to now is        5.2 secs

     total energy              =     -19.25929208 Ry
     estimated scf accuracy    <       0.00196844 Ry

     iteration #  3     ecut=    30.00 Ry     beta= 0.70
     CG style diagonalization
     ethr =  2.46E-05,  avg # of iterations =  4.1

     total cpu time spent up to now is        6.3 secs

     total energy              =     -19.25989804 Ry
     estimated scf accuracy    <       0.00007443 Ry

     iteration #  4     ecut=    30.00 Ry     beta= 0.70
     CG style diagonalization
     ethr =  9.30E-07,  avg # of iterations =  4.3

     total cpu time spent up to now is        7.4 secs

     total energy              =     -19.25993434 Ry
     estimated scf accuracy    <       0.00001591 Ry

     iteration #  5     ecut=    30.00 Ry     beta= 0.70
     CG style diagonalization
     ethr =  1.99E-07,  avg # of iterations =  4.0

     total cpu time spent up to now is        8.4 secs

     total energy              =     -19.25993739 Ry
     estimated scf accuracy    <       0.00000005 Ry

     iteration #  6     ecut=    30.00 Ry     beta= 0.70
     CG style diagonalization
     ethr =  6.62E-10,  avg # of iterations =  5.7

     total cpu time spent up to now is        9.7 secs

     End of self-consistent calculation

          k = 0.0000 0.0000 0.0000 (   725 PWs)   bands (ev):

    -5.8279   6.3783   6.3783   6.3783

          k =-0.1258 0.1258-0.1258 (   718 PWs)   bands (ev):

    -5.6175   4.7508   6.0783   6.0783

          k =-0.2515 0.2515-0.2515 (   733 PWs)   bands (ev):

    -5.0030   2.3654   5.5959   5.5959

          k =-0.3773 0.3773-0.3773 (   739 PWs)   bands (ev):

    -4.0753   0.2848   5.2639   5.2639

          k = 0.5030-0.5030 0.5030 (   718 PWs)   bands (ev):

    -3.4017  -0.7825   5.1509   5.1509

          k = 0.0000 0.2515 0.0000 (   717 PWs)   bands (ev):

    -5.5467   5.0576   5.5364   5.5364

          k =-0.1258 0.3773-0.1258 (   722 PWs)   bands (ev):

    -5.0635   3.1070   5.0101   5.0992

          k =-0.2515 0.5030-0.2515 (   724 PWs)   bands (ev):

    -4.2202   0.9820   4.4908   4.7385

          k = 0.6288-0.3773 0.6288 (   726 PWs)   bands (ev):

    -3.3170  -0.5402   4.0301   4.7688

          k = 0.5030-0.2515 0.5030 (   730 PWs)   bands (ev):

    -3.5755  -0.1521   3.8369   5.0784

          k = 0.3773-0.1258 0.3773 (   730 PWs)   bands (ev):

    -4.5375   1.6632   3.9814   5.5873

          k = 0.2515 0.0000 0.2515 (   737 PWs)   bands (ev):

    -5.2710   3.6633   4.6731   6.0832

          k = 0.0000 0.5030 0.0000 (   713 PWs)   bands (ev):

    -4.7133   2.8508   4.4199   4.4199

          k =-0.1258 0.6288-0.1258 (   724 PWs)   bands (ev):

    -3.9804   1.3863   3.6029   4.0941

          k = 0.7545-0.2515 0.7545 (   724 PWs)   bands (ev):

    -3.0168  -0.1130   2.7060   4.1002

          k = 0.6288-0.1258 0.6288 (   718 PWs)   bands (ev):

    -2.7986  -0.3874   2.2260   4.4315

          k = 0.5030 0.0000 0.5030 (   716 PWs)   bands (ev):

    -3.7160   0.8211   2.4638   5.0113

          k = 0.0000 0.7545 0.0000 (   725 PWs)   bands (ev):

    -3.3608   0.5729   3.6838   3.6838

          k = 0.8803-0.1258 0.8803 (   726 PWs)   bands (ev):

    -2.4330  -0.5399   2.7990   3.6065

          k = 0.7545 0.0000 0.7545 (   724 PWs)   bands (ev):

    -1.9639  -0.9569   1.8812   3.8733

          k = 0.0000-1.0060 0.0000 (   740 PWs)   bands (ev):

    -1.5578  -1.5578   3.4317   3.4317

          k =-0.2515 0.5030 0.0000 (   723 PWs)   bands (ev):

    -4.4569   2.0423   3.5489   4.9032

          k = 0.6288-0.3773 0.8803 (   725 PWs)   bands (ev):

    -3.5357   0.4356   2.9325   4.3753

          k = 0.5030-0.2515 0.7545 (   722 PWs)   bands (ev):

    -2.8491  -0.5562   2.8081   4.1336

          k = 0.7545-0.2515 1.0060 (   728 PWs)   bands (ev):

    -3.1525   0.3494   2.8769   3.5044

          k = 0.6288-0.1258 0.8803 (   721 PWs)   bands (ev):

    -2.2395  -0.6506   2.1406   3.2931

          k = 0.5030 0.0000 0.7545 (   720 PWs)   bands (ev):

    -2.6019  -0.2791   1.9641   3.6868

          k =-0.2515-1.0060-0.0000 (   730 PWs)   bands (ev):

    -1.4711  -1.4711   2.8184   2.8184

          k =-0.5030-1.0060 0.0000 (   724 PWs)   bands (ev):

    -1.3745  -1.3745   2.3502   2.3502

     highest occupied level (ev):     6.3783

!    total energy              =     -19.25993760 Ry
     estimated scf accuracy    <          3.1E-09 Ry

     The total energy is the sum of the following terms:
     one-electron contribution =       5.31243620 Ry
     hartree contribution      =       1.08520510 Ry
     xc contribution           =      -8.66413983 Ry
     ewald contribution        =     -16.99343907 Ry

     convergence has been achieved in   6 iterations

     Forces acting on atoms (cartesian axes, Ry/au):

     atom    1 type  1   force =    -0.00000000   -0.00000000   -0.00000000
     atom    2 type  1   force =     0.00000000    0.00000000    0.00000000

     Total force =     0.000000     Total SCF correction =     0.000000


     Computing stress (Cartesian axis) and pressure

          total   stress  (Ry/bohr**3)                   (kbar)     P=       18.27
   0.00012416   0.00000000  -0.00000000           18.27        0.00       -0.00
   0.00000000   0.00012416   0.00000000            0.00       18.27        0.00
  -0.00000000   0.00000000   0.00012416           -0.00        0.00       18.27


     BFGS Geometry Optimization
     Energy error            =      0.0E+00 Ry
     Gradient error          =      9.9E-32 Ry/Bohr

     bfgs converged in   1 scf cycles and   0 bfgs steps
     (criteria: energy <  1.0E-04 Ry, force <  1.0E-03 Ry/Bohr)

     End of BFGS Geometry Optimization

     Final energy             =     -19.2599375970 Ry
Begin final coordinates

ATOMIC_POSITIONS (crystal)
Si            0.0000000000        0.0000000000        0.0000000000
Si            0.2500000000        0.2500000000        0.2500000000
End final coordinates



     Writing all to output data dir ./Si_elastic_isotropic.save/
 
     init_run     :      1.23s CPU      1.60s WALL (       1 calls)
     electrons    :      6.09s CPU      7.09s WALL (       1 calls)
     forces       :      0.23s CPU      0.30s WALL (       1 calls)
     stress       :      1.63s CPU      1.68s WALL (       1 calls)

     Called by init_run:
     wfcinit      :      0.26s CPU      0.36s WALL (       1 calls)
     potinit      :      0.02s CPU      0.08s WALL (       1 calls)
     hinit0       :      0.80s CPU      0.90s WALL (       1 calls)

     Called by electrons:
     c_bands      :      3.86s CPU      4.57s WALL (       7 calls)
     sum_band     :      1.45s CPU      1.58s WALL (       7 calls)
     v_of_rho     :      0.11s CPU      0.13s WALL (       7 calls)
     newd         :      0.75s CPU      0.86s WALL (       7 calls)
     mix_rho      :      0.02s CPU      0.03s WALL (       7 calls)

     Called by c_bands:
     init_us_2    :      0.35s CPU      0.40s WALL (     493 calls)
     init_us_2:cp :      0.34s CPU      0.39s WALL (     493 calls)
     ccgdiagg     :      3.06s CPU      3.36s WALL (     203 calls)
     wfcrot       :      0.77s CPU      0.88s WALL (     174 calls)

     Called by *cgdiagg:
     h_psi        :      2.98s CPU      3.25s WALL (    2608 calls)
     s_psi        :      0.27s CPU      0.32s WALL (    5042 calls)

     Called by h_psi:
     h_psi:calbec :      0.26s CPU      0.30s WALL (    2608 calls)
     vloc_psi     :      2.41s CPU      2.61s WALL (    2608 calls)
     add_vuspsi   :      0.18s CPU      0.20s WALL (    2608 calls)
     hs_1psi      :      2.57s CPU      2.80s WALL (    2434 calls)
     s_1psi       :      0.34s CPU      0.38s WALL (    2434 calls)

     General routines
     calbec       :      0.40s CPU      0.46s WALL (    5390 calls)
     fft          :      0.06s CPU      0.09s WALL (      49 calls)
     ffts         :      0.01s CPU      0.01s WALL (      14 calls)
     fftw         :      2.32s CPU      2.51s WALL (    7304 calls)
     interpolate  :      0.02s CPU      0.02s WALL (       7 calls)
 
     Parallel routines
 
     PWSCF        :      9.71s CPU     12.23s WALL

 
   This run was terminated on:  16:50:54  14Mar2022            

=------------------------------------------------------------------------------=
   JOB DONE.
=------------------------------------------------------------------------------=
