
     Program PWSCF v.7.0 starts on 15Mar2022 at  0:36:12 

     This program is part of the open-source Quantum ESPRESSO suite
     for quantum simulation of materials; please cite
         "P. Giannozzi et al., J. Phys.:Condens. Matter 21 395502 (2009);
         "P. Giannozzi et al., J. Phys.:Condens. Matter 29 465901 (2017);
         "P. Giannozzi et al., J. Chem. Phys. 152 154105 (2020);
          URL http://www.quantum-espresso.org", 
     in publications or presentations arising from this work. More details at
     http://www.quantum-espresso.org/quote

     Parallel version (MPI), running on     1 processors

     MPI processes distributed on     1 nodes
     87989 MiB available memory on the printing compute node when the environment starts
 
     Waiting for input...
     Reading input from standard input
Warning: card &CELL ignored
Warning: card  CELL_DYNAMICS = 'BFGS', ignored
Warning: card  PRESS=0.1D0, ignored
Warning: card / ignored

     Current dimensions of program PWSCF are:
     Max number of different atomic species (ntypx) = 10
     Max number of k-points (npk) =  40000
     Max angular momentum in pseudopotentials (lmaxx) =  4
     Message from routine setup:
     using ibrav=0 with symmetry is DISCOURAGED, use correct ibrav instead

     Subspace diagonalization in iterative solution of the eigenvalue problem:
     a serial algorithm will be used

 
     G-vector sticks info
     --------------------
     sticks:   dense  smooth     PW     G-vecs:    dense   smooth      PW
     Sum        1069     433    139                23217     5897    1067
 
     Using Slab Decomposition
 


     bravais-lattice index     =            0
     lattice parameter (alat)  =      10.1900  a.u.
     unit-cell volume          =     264.5193 (a.u.)^3
     number of atoms/cell      =            2
     number of atomic types    =            1
     number of electrons       =         8.00
     number of Kohn-Sham states=            4
     kinetic-energy cutoff     =      30.0000  Ry
     charge density cutoff     =     300.0000  Ry
     scf convergence threshold =      1.0E-08
     mixing beta               =       0.7000
     number of iterations used =            8  plain     mixing
     energy convergence thresh.=      1.0E-04
     force convergence thresh. =      1.0E-03
     Exchange-correlation= SLA  PZ   NOGX NOGC
                           (   1   1   0   0   0   0   0)
     nstep                     =           50


     celldm(1)=  10.190000  celldm(2)=   0.000000  celldm(3)=   0.000000
     celldm(4)=   0.000000  celldm(5)=   0.000000  celldm(6)=   0.000000

     crystal axes: (cart. coord. in units of alat)
               a(1) = (  -0.499000   0.000000   0.502000 )  
               a(2) = (   0.000000   0.499000   0.502000 )  
               a(3) = (  -0.499000   0.499000   0.000000 )  

     reciprocal axes: (cart. coord. in units 2 pi/alat)
               b(1) = ( -1.002004 -1.002004  0.996016 )  
               b(2) = (  1.002004  1.002004  0.996016 )  
               b(3) = ( -1.002004  1.002004 -0.996016 )  


     PseudoPot. # 1 for Si read from file:
     ./Si_LDA.UPF
     MD5 check sum: b5ade7b37ee992b02096e360e546dc2d
     Pseudo is Ultrasoft + core correction, Zval =  4.0
     Generated by new atomic code, or converted to UPF format
     Using radial grid of  899 points,  6 beta functions with: 
                l(1) =   0
                l(2) =   0
                l(3) =   1
                l(4) =   1
                l(5) =   2
                l(6) =   2
     Q(r) pseudized with  8 coefficients,  rinner =    0.900   0.900   0.900
                                                       0.900   0.900

     atomic species   valence    mass     pseudopotential
        Si             4.00    28.08550     Si( 1.00)

     16 Sym. Ops., with inversion, found ( 8 have fractional translation)



   Cartesian axes

     site n.     atom                  positions (alat units)
         1           Si  tau(   1) = (   0.0000000   0.0000000   0.0000000  )
         2           Si  tau(   2) = (  -0.2495000   0.2495000   0.2510000  )

     number of k points=    59
                       cart. coord. in units 2pi/alat
        k(    1) = (   0.0000000   0.0000000   0.0000000), wk =   0.0039062
        k(    2) = (  -0.1252505   0.1252505  -0.1245020), wk =   0.0312500
        k(    3) = (  -0.2505010   0.2505010  -0.2490040), wk =   0.0312500
        k(    4) = (  -0.3757515   0.3757515  -0.3735060), wk =   0.0312500
        k(    5) = (   0.5010020  -0.5010020   0.4980080), wk =   0.0156250
        k(    6) = (   0.0000000   0.2505010   0.0000000), wk =   0.0156250
        k(    7) = (  -0.1252505   0.3757515  -0.1245020), wk =   0.0625000
        k(    8) = (  -0.2505010   0.5010020  -0.2490040), wk =   0.0625000
        k(    9) = (   0.6262525  -0.3757515   0.6225100), wk =   0.0625000
        k(   10) = (   0.5010020  -0.2505010   0.4980080), wk =   0.0625000
        k(   11) = (   0.3757515  -0.1252505   0.3735060), wk =   0.0625000
        k(   12) = (   0.2505010   0.0000000   0.2490040), wk =   0.0312500
        k(   13) = (   0.0000000   0.5010020   0.0000000), wk =   0.0156250
        k(   14) = (  -0.1252505   0.6262525  -0.1245020), wk =   0.0625000
        k(   15) = (   0.7515030  -0.2505010   0.7470120), wk =   0.0625000
        k(   16) = (   0.6262525  -0.1252505   0.6225100), wk =   0.0625000
        k(   17) = (   0.5010020   0.0000000   0.4980080), wk =   0.0312500
        k(   18) = (   0.0000000   0.7515030  -0.0000000), wk =   0.0156250
        k(   19) = (   0.8767535  -0.1252505   0.8715139), wk =   0.0625000
        k(   20) = (   0.7515030   0.0000000   0.7470120), wk =   0.0312500
        k(   21) = (   0.0000000  -1.0020040   0.0000000), wk =   0.0078125
        k(   22) = (   0.0000000   0.0000000   0.2490040), wk =   0.0078125
        k(   23) = (  -0.2505010   0.2505010   0.0000000), wk =   0.0156250
        k(   24) = (  -0.3757515   0.3757515  -0.1245020), wk =   0.0312500
        k(   25) = (   0.5010020  -0.5010020   0.7470120), wk =   0.0312500
        k(   26) = (   0.3757515  -0.3757515   0.6225100), wk =   0.0312500
        k(   27) = (   0.2505010  -0.2505010   0.4980080), wk =   0.0312500
        k(   28) = (   0.1252505  -0.1252505   0.3735060), wk =   0.0312500
        k(   29) = (  -0.2505010   0.5010020  -0.0000000), wk =   0.0312500
        k(   30) = (   0.6262525  -0.3757515   0.8715139), wk =   0.0625000
        k(   31) = (   0.5010020  -0.2505010   0.7470120), wk =   0.0625000
        k(   32) = (   0.3757515  -0.1252505   0.6225100), wk =   0.0625000
        k(   33) = (   0.2505010   0.0000000   0.4980080), wk =   0.0312500
        k(   34) = (   0.0000000   0.5010020   0.2490040), wk =   0.0312500
        k(   35) = (   0.7515030  -0.2505010   0.9960159), wk =   0.0312500
        k(   36) = (   0.6262525  -0.1252505   0.8715139), wk =   0.0625000
        k(   37) = (   0.5010020   0.0000000   0.7470120), wk =   0.0312500
        k(   38) = (  -0.8767535  -0.3757515  -0.6225100), wk =   0.0625000
        k(   39) = (  -1.0020040  -0.2505010  -0.7470120), wk =   0.0312500
        k(   40) = (  -0.2505010  -1.0020040   0.0000000), wk =   0.0156250
        k(   41) = (  -0.7515030  -0.2505010  -0.4980080), wk =   0.0312500
        k(   42) = (  -0.8767535  -0.1252505  -0.6225100), wk =   0.0625000
        k(   43) = (   0.0000000  -1.0020040   0.2490040), wk =   0.0156250
        k(   44) = (  -0.7515030  -0.0000000  -0.4980080), wk =   0.0312500
        k(   45) = (   0.0000000   0.0000000   0.4980080), wk =   0.0078125
        k(   46) = (   0.5010020  -0.5010020   0.9960159), wk =   0.0156250
        k(   47) = (   0.3757515  -0.3757515   0.8715139), wk =   0.0312500
        k(   48) = (   0.2505010  -0.2505010   0.7470120), wk =   0.0312500
        k(   49) = (   0.1252505  -0.1252505   0.6225100), wk =   0.0312500
        k(   50) = (   0.5010020  -0.2505010   0.9960159), wk =   0.0312500
        k(   51) = (   0.3757515  -0.1252505   0.8715139), wk =   0.0625000
        k(   52) = (   0.2505010   0.0000000   0.7470120), wk =   0.0312500
        k(   53) = (  -0.5010020  -1.0020040   0.0000000), wk =   0.0156250
        k(   54) = (   0.0000000  -1.0020040   0.4980080), wk =   0.0078125
        k(   55) = (   0.0000000   0.0000000   0.7470120), wk =   0.0078125
        k(   56) = (   0.2505010  -0.2505010   0.9960159), wk =   0.0156250
        k(   57) = (   0.1252505  -0.1252505   0.8715139), wk =   0.0312500
        k(   58) = (  -0.7515030  -1.0020040   0.0000000), wk =   0.0156250
        k(   59) = (   0.0000000   0.0000000  -0.9960159), wk =   0.0039062

     Dense  grid:    23217 G-vectors     FFT dimensions: (  40,  40,  40)

     Smooth grid:     5897 G-vectors     FFT dimensions: (  32,  32,  32)

     Estimated max dynamical RAM per process >      89.60 MB

     Initial potential from superposition of free atoms

     starting charge       7.9988, renormalised to       8.0000
     Starting wfcs are    8 randomized atomic wfcs

     total cpu time spent up to now is        2.3 secs

     Self-consistent Calculation

     iteration #  1     ecut=    30.00 Ry     beta= 0.70
     CG style diagonalization
     ethr =  1.00E-02,  avg # of iterations =  3.0

     Threshold (ethr) on eigenvalues was too large:
     Diagonalizing with lowered threshold

     CG style diagonalization
     ethr =  7.37E-04,  avg # of iterations =  2.0

     total cpu time spent up to now is        5.6 secs

     total energy              =     -19.25651276 Ry
     estimated scf accuracy    <       0.05987903 Ry

     iteration #  2     ecut=    30.00 Ry     beta= 0.70
     CG style diagonalization
     ethr =  7.48E-04,  avg # of iterations =  3.0

     total cpu time spent up to now is        7.4 secs

     total energy              =     -19.25957152 Ry
     estimated scf accuracy    <       0.00196938 Ry

     iteration #  3     ecut=    30.00 Ry     beta= 0.70
     CG style diagonalization
     ethr =  2.46E-05,  avg # of iterations =  4.1

     total cpu time spent up to now is        9.6 secs

     total energy              =     -19.26015501 Ry
     estimated scf accuracy    <       0.00007236 Ry

     iteration #  4     ecut=    30.00 Ry     beta= 0.70
     CG style diagonalization
     ethr =  9.05E-07,  avg # of iterations =  4.3

     total cpu time spent up to now is       11.9 secs

     total energy              =     -19.26019131 Ry
     estimated scf accuracy    <       0.00001564 Ry

     iteration #  5     ecut=    30.00 Ry     beta= 0.70
     CG style diagonalization
     ethr =  1.95E-07,  avg # of iterations =  4.0

     total cpu time spent up to now is       14.1 secs

     total energy              =     -19.26019430 Ry
     estimated scf accuracy    <       0.00000005 Ry

     iteration #  6     ecut=    30.00 Ry     beta= 0.70
     CG style diagonalization
     ethr =  6.39E-10,  avg # of iterations =  5.8

     total cpu time spent up to now is       17.0 secs

     End of self-consistent calculation

          k = 0.0000 0.0000 0.0000 (   725 PWs)   bands (ev):

    -5.8779   6.2045   6.2472   6.2472

          k =-0.1253 0.1253-0.1245 (   730 PWs)   bands (ev):

    -5.6700   4.6106   5.9203   5.9540

          k =-0.2505 0.2505-0.2490 (   743 PWs)   bands (ev):

    -5.0628   2.2464   5.4370   5.4820

          k =-0.3758 0.3758-0.3735 (   746 PWs)   bands (ev):

    -4.1478   0.1890   5.1027   5.1572

          k = 0.5010-0.5010 0.4980 (   738 PWs)   bands (ev):

    -3.4870  -0.8619   4.9885   5.0468

          k = 0.0000 0.2505 0.0000 (   729 PWs)   bands (ev):

    -5.5990   4.9127   5.3820   5.4083

          k =-0.1253 0.3758-0.1245 (   732 PWs)   bands (ev):

    -5.1206   2.9748   4.8710   4.9708

          k =-0.2505 0.5010-0.2490 (   738 PWs)   bands (ev):

    -4.2875   0.8719   4.3712   4.6018

          k = 0.6263-0.3758 0.6225 (   735 PWs)   bands (ev):

    -3.4003  -0.6274   3.9192   4.6279

          k = 0.5010-0.2505 0.4980 (   738 PWs)   bands (ev):

    -3.6570  -0.2417   3.7299   4.9318

          k = 0.3758-0.1253 0.3735 (   738 PWs)   bands (ev):

    -4.6048   1.5501   3.8747   5.4350

          k = 0.2505 0.0000 0.2490 (   743 PWs)   bands (ev):

    -5.3284   3.5246   4.5632   5.9280

          k = 0.0000 0.5010 0.0000 (   729 PWs)   bands (ev):

    -4.7724   2.7175   4.2817   4.2953

          k =-0.1253 0.6263-0.1245 (   731 PWs)   bands (ev):

    -4.0469   1.2640   3.4907   3.9644

          k = 0.7515-0.2505 0.7470 (   732 PWs)   bands (ev):

    -3.0975  -0.2182   2.6133   3.9681

          k = 0.6263-0.1253 0.6225 (   728 PWs)   bands (ev):

    -2.8902  -0.4822   2.1435   4.2935

          k = 0.5010 0.0000 0.4980 (   742 PWs)   bands (ev):

    -3.7950   0.7087   2.3827   4.8653

          k = 0.0000 0.7515-0.0000 (   737 PWs)   bands (ev):

    -3.4317   0.4626   3.5548   3.5607

          k = 0.8768-0.1253 0.8715 (   736 PWs)   bands (ev):

    -2.5145  -0.6414   2.6947   3.4801

          k = 0.7515 0.0000 0.7470 (   730 PWs)   bands (ev):

    -2.0620  -1.0512   1.8023   3.7429

          k = 0.0000-1.0020 0.0000 (   740 PWs)   bands (ev):

    -1.6459  -1.6459   3.3073   3.3073

          k = 0.0000 0.0000 0.2490 (   729 PWs)   bands (ev):

    -5.6019   4.8738   5.4213   5.4213

          k =-0.2505 0.2505 0.0000 (   741 PWs)   bands (ev):

    -5.3256   3.5219   4.5318   5.9620

          k =-0.3758 0.3758-0.1245 (   739 PWs)   bands (ev):

    -4.5998   1.5392   3.8403   5.4778

          k = 0.5010-0.5010 0.7470 (   739 PWs)   bands (ev):

    -3.6524  -0.2512   3.6885   4.9778

          k = 0.3758-0.3758 0.6225 (   736 PWs)   bands (ev):

    -3.4052  -0.6250   3.8758   4.6718

          k = 0.2505-0.2505 0.4980 (   736 PWs)   bands (ev):

    -4.2950   0.8772   4.3354   4.6398

          k = 0.1253-0.1253 0.3735 (   737 PWs)   bands (ev):

    -5.1262   2.9710   4.9049   4.9522

          k =-0.2505 0.5010-0.0000 (   737 PWs)   bands (ev):

    -4.5189   1.9062   3.4208   4.7923

          k = 0.6263-0.3758 0.8715 (   735 PWs)   bands (ev):

    -3.6093   0.3167   2.8083   4.2735

          k = 0.5010-0.2505 0.7470 (   730 PWs)   bands (ev):

    -2.9415  -0.6516   2.6931   4.0228

          k = 0.3758-0.1253 0.6225 (   735 PWs)   bands (ev):

    -3.6219   0.3276   2.8358   4.2444

          k = 0.2505 0.0000 0.4980 (   737 PWs)   bands (ev):

    -4.5295   1.9058   3.4605   4.7635

          k = 0.0000 0.5010 0.2490 (   737 PWs)   bands (ev):

    -4.5212   1.9174   3.4450   4.7684

          k = 0.7515-0.2505 0.9960 (   732 PWs)   bands (ev):

    -3.2274   0.2303   2.7587   3.3999

          k = 0.6263-0.1253 0.8715 (   728 PWs)   bands (ev):

    -2.3323  -0.7596   2.0516   3.1785

          k = 0.5010 0.0000 0.7470 (   732 PWs)   bands (ev):

    -2.7008  -0.3884   1.8926   3.5581

          k =-0.8768-0.3758-0.6225 (   734 PWs)   bands (ev):

    -3.6123   0.3303   2.8374   4.2512

          k =-1.0020-0.2505-0.7470 (   732 PWs)   bands (ev):

    -3.2285   0.2380   2.7764   3.3942

          k =-0.2505-1.0020 0.0000 (   734 PWs)   bands (ev):

    -1.5656  -1.5656   2.7086   2.7086

          k =-0.7515-0.2505-0.4980 (   730 PWs)   bands (ev):

    -2.9379  -0.6454   2.7156   4.0123

          k =-0.8768-0.1253-0.6225 (   731 PWs)   bands (ev):

    -2.3301  -0.7514   2.0582   3.1890

          k = 0.0000-1.0020 0.2490 (   730 PWs)   bands (ev):

    -1.5638  -1.5638   2.7175   2.7175

          k =-0.7515-0.0000-0.4980 (   731 PWs)   bands (ev):

    -2.6908  -0.3826   1.8862   3.5785

          k = 0.0000 0.0000 0.4980 (   729 PWs)   bands (ev):

    -4.7837   2.6743   4.3246   4.3246

          k = 0.5010-0.5010 0.9960 (   742 PWs)   bands (ev):

    -3.7871   0.6871   2.3491   4.9138

          k = 0.3758-0.3758 0.8715 (   733 PWs)   bands (ev):

    -2.8877  -0.5016   2.1108   4.3420

          k = 0.2505-0.2505 0.7470 (   732 PWs)   bands (ev):

    -3.1134  -0.2241   2.5897   4.0135

          k = 0.1253-0.1253 0.6225 (   732 PWs)   bands (ev):

    -4.0628   1.2412   3.4966   4.0053

          k = 0.5010-0.2505 0.9960 (   730 PWs)   bands (ev):

    -2.6898  -0.4065   1.8634   3.5999

          k = 0.3758-0.1253 0.8715 (   728 PWs)   bands (ev):

    -2.3462  -0.7702   2.0527   3.2066

          k = 0.2505 0.0000 0.7470 (   732 PWs)   bands (ev):

    -3.2484   0.2110   2.8010   3.4046

          k =-0.5010-1.0020 0.0000 (   728 PWs)   bands (ev):

    -1.4856  -1.4856   2.2629   2.2629

          k = 0.0000-1.0020 0.4980 (   724 PWs)   bands (ev):

    -1.4729  -1.4729   2.2659   2.2659

          k = 0.0000 0.0000 0.7470 (   733 PWs)   bands (ev):

    -3.4553   0.4180   3.6015   3.6015

          k = 0.2505-0.2505 0.9960 (   726 PWs)   bands (ev):

    -2.0723  -1.0840   1.7987   3.7909

          k = 0.1253-0.1253 0.8715 (   734 PWs)   bands (ev):

    -2.5422  -0.6761   2.7202   3.5264

          k =-0.7515-1.0020 0.0000 (   734 PWs)   bands (ev):

    -1.5935  -1.5935   2.7416   2.7416

          k = 0.0000 0.0000-0.9960 (   740 PWs)   bands (ev):

    -1.6824  -1.6824   3.3538   3.3538

     highest occupied level (ev):     6.2472

!    total energy              =     -19.26019452 Ry
     estimated scf accuracy    <          2.9E-09 Ry

     The total energy is the sum of the following terms:
     one-electron contribution =       5.20659418 Ry
     hartree contribution      =       1.09673265 Ry
     xc contribution           =      -8.64701767 Ry
     ewald contribution        =     -16.91650368 Ry

     convergence has been achieved in   6 iterations

     Forces acting on atoms (cartesian axes, Ry/au):

     atom    1 type  1   force =     0.00000000    0.00000000    0.00000000
     atom    2 type  1   force =     0.00000000    0.00000000    0.00000000

     Total force =     0.000000     Total SCF correction =     0.000000


     Computing stress (Cartesian axis) and pressure

          total   stress  (Ry/bohr**3)                   (kbar)     P=        4.42
   0.00004336  -0.00000000  -0.00000000            6.38       -0.00       -0.00
   0.00000000   0.00004336   0.00000000            0.00        6.38        0.00
  -0.00000000  -0.00000000   0.00000349           -0.00       -0.00        0.51


     BFGS Geometry Optimization
     Energy error            =      0.0E+00 Ry
     Gradient error          =      0.0E+00 Ry/Bohr

     bfgs converged in   1 scf cycles and   0 bfgs steps
     (criteria: energy <  1.0E-04 Ry, force <  1.0E-03 Ry/Bohr)

     End of BFGS Geometry Optimization

     Final energy             =     -19.2601945248 Ry
Begin final coordinates

ATOMIC_POSITIONS (crystal)
Si            0.0000000000        0.0000000000        0.0000000000
Si            0.2500000000        0.2500000000        0.2500000000
End final coordinates



     Writing all to output data dir ./Si_elastic_isotropic.save/
 
     init_run     :      1.69s CPU      1.76s WALL (       1 calls)
     electrons    :     12.98s CPU     14.68s WALL (       1 calls)
     forces       :      0.33s CPU      0.36s WALL (       1 calls)
     stress       :      2.09s CPU      2.12s WALL (       1 calls)

     Called by init_run:
     wfcinit      :      0.64s CPU      0.67s WALL (       1 calls)
     potinit      :      0.03s CPU      0.03s WALL (       1 calls)
     hinit0       :      0.86s CPU      0.88s WALL (       1 calls)

     Called by electrons:
     c_bands      :      9.80s CPU     11.27s WALL (       7 calls)
     sum_band     :      2.30s CPU      2.43s WALL (       7 calls)
     v_of_rho     :      0.11s CPU      0.11s WALL (       7 calls)
     newd         :      0.85s CPU      0.94s WALL (       7 calls)
     mix_rho      :      0.02s CPU      0.03s WALL (       7 calls)

     Called by c_bands:
     init_us_2    :      0.75s CPU      0.83s WALL (    1003 calls)
     init_us_2:cp :      0.72s CPU      0.81s WALL (    1003 calls)
     ccgdiagg     :      7.86s CPU      8.61s WALL (     413 calls)
     wfcrot       :      1.98s CPU      2.08s WALL (     354 calls)

     Called by *cgdiagg:
     h_psi        :      7.73s CPU      8.33s WALL (    5332 calls)
     s_psi        :      0.75s CPU      0.88s WALL (   10310 calls)

     Called by h_psi:
     h_psi:calbec :      0.69s CPU      0.73s WALL (    5332 calls)
     vloc_psi     :      6.28s CPU      6.78s WALL (    5332 calls)
     add_vuspsi   :      0.47s CPU      0.53s WALL (    5332 calls)
     hs_1psi      :      6.63s CPU      7.21s WALL (    4978 calls)
     s_1psi       :      0.89s CPU      0.99s WALL (    4978 calls)

     General routines
     calbec       :      1.03s CPU      1.16s WALL (   11018 calls)
     fft          :      0.06s CPU      0.07s WALL (      49 calls)
     ffts         :      0.01s CPU      0.01s WALL (      14 calls)
     fftw         :      5.56s CPU      5.96s WALL (   14912 calls)
     interpolate  :      0.02s CPU      0.02s WALL (       7 calls)
 
     Parallel routines
 
     PWSCF        :     17.63s CPU     19.97s WALL

 
   This run was terminated on:   0:36:32  15Mar2022            

=------------------------------------------------------------------------------=
   JOB DONE.
=------------------------------------------------------------------------------=
