
     Program PWSCF v.7.0 starts on 13Mar2022 at 10:29:38 

     This program is part of the open-source Quantum ESPRESSO suite
     for quantum simulation of materials; please cite
         "P. Giannozzi et al., J. Phys.:Condens. Matter 21 395502 (2009);
         "P. Giannozzi et al., J. Phys.:Condens. Matter 29 465901 (2017);
         "P. Giannozzi et al., J. Chem. Phys. 152 154105 (2020);
          URL http://www.quantum-espresso.org", 
     in publications or presentations arising from this work. More details at
     http://www.quantum-espresso.org/quote

     Parallel version (MPI), running on     1 processors

     MPI processes distributed on     1 nodes
     88677 MiB available memory on the printing compute node when the environment starts
 
     Waiting for input...
     Reading input from standard input
Warning: card &CELL ignored
Warning: card  CELL_DYNAMICS = 'BFGS', ignored
Warning: card  PRESS=0.1D0, ignored
Warning: card / ignored

     Current dimensions of program PWSCF are:
     Max number of different atomic species (ntypx) = 10
     Max number of k-points (npk) =  40000
     Max angular momentum in pseudopotentials (lmaxx) =  4
     Message from routine setup:
     using ibrav=0 with symmetry is DISCOURAGED, use correct ibrav instead

     Subspace diagonalization in iterative solution of the eigenvalue problem:
     a serial algorithm will be used

 
     G-vector sticks info
     --------------------
     sticks:   dense  smooth     PW     G-vecs:    dense   smooth      PW
     Sum        2173     733    223                66923    12939    2229
 
     Using Slab Decomposition
 


     bravais-lattice index     =            0
     lattice parameter (alat)  =      10.2600  a.u.
     unit-cell volume          =     270.0114 (a.u.)^3
     number of atoms/cell      =            2
     number of atomic types    =            1
     number of electrons       =         8.00
     number of Kohn-Sham states=            4
     kinetic-energy cutoff     =      50.0000  Ry
     charge density cutoff     =     600.0000  Ry
     scf convergence threshold =      1.0E-08
     mixing beta               =       0.7000
     number of iterations used =            8  plain     mixing
     Exchange-correlation= SLA  PZ   NOGX NOGC
                           (   1   1   0   0   0   0   0)

     celldm(1)=  10.260000  celldm(2)=   0.000000  celldm(3)=   0.000000
     celldm(4)=   0.000000  celldm(5)=   0.000000  celldm(6)=   0.000000

     crystal axes: (cart. coord. in units of alat)
               a(1) = (  -0.500000   0.000000   0.500000 )  
               a(2) = (   0.000000   0.500000   0.500000 )  
               a(3) = (  -0.500000   0.500000   0.000000 )  

     reciprocal axes: (cart. coord. in units 2 pi/alat)
               b(1) = ( -1.000000 -1.000000  1.000000 )  
               b(2) = (  1.000000  1.000000  1.000000 )  
               b(3) = ( -1.000000  1.000000 -1.000000 )  


     PseudoPot. # 1 for Si read from file:
     ./Si_LDA.UPF
     MD5 check sum: b5ade7b37ee992b02096e360e546dc2d
     Pseudo is Ultrasoft + core correction, Zval =  4.0
     Generated by new atomic code, or converted to UPF format
     Using radial grid of  899 points,  6 beta functions with: 
                l(1) =   0
                l(2) =   0
                l(3) =   1
                l(4) =   1
                l(5) =   2
                l(6) =   2
     Q(r) pseudized with  8 coefficients,  rinner =    0.900   0.900   0.900
                                                       0.900   0.900

     atomic species   valence    mass     pseudopotential
        Si             4.00    28.08550     Si( 1.00)

     48 Sym. Ops., with inversion, found (24 have fractional translation)



   Cartesian axes

     site n.     atom                  positions (alat units)
         1           Si  tau(   1) = (   0.0000000   0.0000000   0.0000000  )
         2           Si  tau(   2) = (  -0.2500000   0.2500000   0.2500000  )

     number of k points=    47
                       cart. coord. in units 2pi/alat
        k(    1) = (   0.0000000   0.0000000   0.0000000), wk =   0.0020000
        k(    2) = (  -0.1000000   0.1000000  -0.1000000), wk =   0.0160000
        k(    3) = (  -0.2000000   0.2000000  -0.2000000), wk =   0.0160000
        k(    4) = (  -0.3000000   0.3000000  -0.3000000), wk =   0.0160000
        k(    5) = (  -0.4000000   0.4000000  -0.4000000), wk =   0.0160000
        k(    6) = (   0.5000000  -0.5000000   0.5000000), wk =   0.0080000
        k(    7) = (   0.0000000   0.2000000   0.0000000), wk =   0.0120000
        k(    8) = (  -0.1000000   0.3000000  -0.1000000), wk =   0.0480000
        k(    9) = (  -0.2000000   0.4000000  -0.2000000), wk =   0.0480000
        k(   10) = (  -0.3000000   0.5000000  -0.3000000), wk =   0.0480000
        k(   11) = (   0.6000000  -0.4000000   0.6000000), wk =   0.0480000
        k(   12) = (   0.5000000  -0.3000000   0.5000000), wk =   0.0480000
        k(   13) = (   0.4000000  -0.2000000   0.4000000), wk =   0.0480000
        k(   14) = (   0.3000000  -0.1000000   0.3000000), wk =   0.0480000
        k(   15) = (   0.2000000   0.0000000   0.2000000), wk =   0.0240000
        k(   16) = (   0.0000000   0.4000000   0.0000000), wk =   0.0120000
        k(   17) = (  -0.1000000   0.5000000  -0.1000000), wk =   0.0480000
        k(   18) = (  -0.2000000   0.6000000  -0.2000000), wk =   0.0480000
        k(   19) = (   0.7000000  -0.3000000   0.7000000), wk =   0.0480000
        k(   20) = (   0.6000000  -0.2000000   0.6000000), wk =   0.0480000
        k(   21) = (   0.5000000  -0.1000000   0.5000000), wk =   0.0480000
        k(   22) = (   0.4000000   0.0000000   0.4000000), wk =   0.0240000
        k(   23) = (  -0.0000000   0.6000000  -0.0000000), wk =   0.0120000
        k(   24) = (  -0.1000000   0.7000000  -0.1000000), wk =   0.0480000
        k(   25) = (   0.8000000  -0.2000000   0.8000000), wk =   0.0480000
        k(   26) = (   0.7000000  -0.1000000   0.7000000), wk =   0.0480000
        k(   27) = (   0.6000000   0.0000000   0.6000000), wk =   0.0240000
        k(   28) = (   0.0000000   0.8000000   0.0000000), wk =   0.0120000
        k(   29) = (   0.9000000  -0.1000000   0.9000000), wk =   0.0480000
        k(   30) = (   0.8000000   0.0000000   0.8000000), wk =   0.0240000
        k(   31) = (   0.0000000  -1.0000000   0.0000000), wk =   0.0060000
        k(   32) = (  -0.2000000   0.4000000   0.0000000), wk =   0.0480000
        k(   33) = (  -0.3000000   0.5000000  -0.1000000), wk =   0.0960000
        k(   34) = (   0.6000000  -0.4000000   0.8000000), wk =   0.0960000
        k(   35) = (   0.5000000  -0.3000000   0.7000000), wk =   0.0480000
        k(   36) = (  -0.2000000   0.6000000   0.0000000), wk =   0.0480000
        k(   37) = (   0.7000000  -0.3000000   0.9000000), wk =   0.0960000
        k(   38) = (   0.6000000  -0.2000000   0.8000000), wk =   0.0960000
        k(   39) = (   0.5000000  -0.1000000   0.7000000), wk =   0.0960000
        k(   40) = (   0.4000000   0.0000000   0.6000000), wk =   0.0480000
        k(   41) = (   0.8000000  -0.2000000   1.0000000), wk =   0.0480000
        k(   42) = (   0.7000000  -0.1000000   0.9000000), wk =   0.0960000
        k(   43) = (   0.6000000   0.0000000   0.8000000), wk =   0.0480000
        k(   44) = (  -0.2000000  -1.0000000  -0.0000000), wk =   0.0240000
        k(   45) = (   0.6000000  -0.2000000   1.0000000), wk =   0.0480000
        k(   46) = (   0.5000000  -0.1000000   0.9000000), wk =   0.0480000
        k(   47) = (  -0.4000000  -1.0000000  -0.0000000), wk =   0.0240000

     Dense  grid:    66923 G-vectors     FFT dimensions: (  60,  60,  60)

     Smooth grid:    12939 G-vectors     FFT dimensions: (  36,  36,  36)

     Estimated max dynamical RAM per process >     255.07 MB

     Initial potential from superposition of free atoms

     starting charge       7.9988, renormalised to       8.0000
     Starting wfcs are    8 randomized atomic wfcs

     total cpu time spent up to now is        3.6 secs

     Self-consistent Calculation

     iteration #  1     ecut=    50.00 Ry     beta= 0.70
     CG style diagonalization
     ethr =  1.00E-02,  avg # of iterations =  3.0

     Threshold (ethr) on eigenvalues was too large:
     Diagonalizing with lowered threshold

     CG style diagonalization
     ethr =  7.14E-04,  avg # of iterations =  2.0

     total cpu time spent up to now is        9.3 secs

     total energy              =     -19.25698914 Ry
     estimated scf accuracy    <       0.05757941 Ry

     iteration #  2     ecut=    50.00 Ry     beta= 0.70
     CG style diagonalization
     ethr =  7.20E-04,  avg # of iterations =  3.0

     total cpu time spent up to now is       12.6 secs

     total energy              =     -19.25976490 Ry
     estimated scf accuracy    <       0.00197433 Ry

     iteration #  3     ecut=    50.00 Ry     beta= 0.70
     CG style diagonalization
     ethr =  2.47E-05,  avg # of iterations =  4.1

     total cpu time spent up to now is       16.6 secs

     total energy              =     -19.26032886 Ry
     estimated scf accuracy    <       0.00006666 Ry

     iteration #  4     ecut=    50.00 Ry     beta= 0.70
     CG style diagonalization
     ethr =  8.33E-07,  avg # of iterations =  4.3

     total cpu time spent up to now is       20.7 secs

     total energy              =     -19.26036435 Ry
     estimated scf accuracy    <       0.00001403 Ry

     iteration #  5     ecut=    50.00 Ry     beta= 0.70
     CG style diagonalization
     ethr =  1.75E-07,  avg # of iterations =  4.0

     total cpu time spent up to now is       24.6 secs

     total energy              =     -19.26036717 Ry
     estimated scf accuracy    <       0.00000005 Ry

     iteration #  6     ecut=    50.00 Ry     beta= 0.70
     CG style diagonalization
     ethr =  6.85E-10,  avg # of iterations =  5.7

     total cpu time spent up to now is       29.7 secs

     End of self-consistent calculation

          k = 0.0000 0.0000 0.0000 (  1639 PWs)   bands (ev):

    -5.9535   6.0154   6.0154   6.0154

          k =-0.1000 0.1000-0.1000 (  1606 PWs)   bands (ev):

    -5.8225   4.8555   5.8162   5.8162

          k =-0.2000 0.2000-0.2000 (  1606 PWs)   bands (ev):

    -5.4357   2.9866   5.4352   5.4352

          k =-0.3000 0.3000-0.3000 (  1615 PWs)   bands (ev):

    -4.8194   1.1982   5.1011   5.1011

          k =-0.4000 0.4000-0.4000 (  1616 PWs)   bands (ev):

    -4.0700  -0.2806   4.8896   4.8896

          k = 0.5000-0.5000 0.5000 (  1622 PWs)   bands (ev):

    -3.6152  -0.9819   4.8183   4.8183

          k = 0.0000 0.2000 0.0000 (  1599 PWs)   bands (ev):

    -5.7785   5.0601   5.4360   5.4360

          k =-0.1000 0.3000-0.1000 (  1609 PWs)   bands (ev):

    -5.4758   3.5456   5.0005   5.1658

          k =-0.2000 0.4000-0.2000 (  1607 PWs)   bands (ev):

    -4.9317   1.7830   4.6822   4.7285

          k =-0.3000 0.5000-0.3000 (  1610 PWs)   bands (ev):

    -4.2060   0.2075   4.3155   4.5359

          k = 0.6000-0.4000 0.6000 (  1609 PWs)   bands (ev):

    -3.5615  -0.8335   4.0247   4.5701

          k = 0.5000-0.3000 0.5000 (  1612 PWs)   bands (ev):

    -3.7301  -0.5834   3.8959   4.7709

          k = 0.4000-0.2000 0.4000 (  1616 PWs)   bands (ev):

    -4.4622   0.7024   3.9554   5.1062

          k = 0.3000-0.1000 0.3000 (  1600 PWs)   bands (ev):

    -5.1393   2.3540   4.2312   5.5127

          k = 0.2000 0.0000 0.2000 (  1592 PWs)   bands (ev):

    -5.6057   3.9675   4.8444   5.8398

          k = 0.0000 0.4000 0.0000 (  1607 PWs)   bands (ev):

    -5.2577   3.3727   4.5233   4.5233

          k =-0.1000 0.5000-0.1000 (  1612 PWs)   bands (ev):

    -4.7916   2.1286   4.0070   4.1753

          k =-0.2000 0.6000-0.2000 (  1619 PWs)   bands (ev):

    -4.1152   0.6909   3.3709   4.0163

          k = 0.7000-0.3000 0.7000 (  1606 PWs)   bands (ev):

    -3.3813  -0.4967   2.8579   4.0612

          k = 0.6000-0.2000 0.6000 (  1596 PWs)   bands (ev):

    -3.2269  -0.7065   2.5576   4.3006

          k = 0.5000-0.1000 0.5000 (  1610 PWs)   bands (ev):

    -3.8839   0.2844   2.5358   4.6992

          k = 0.4000 0.0000 0.4000 (  1610 PWs)   bands (ev):

    -4.6034   1.5242   2.9902   5.1709

          k =-0.0000 0.6000-0.0000 (  1620 PWs)   bands (ev):

    -4.4036   1.5859   3.7820   3.7820

          k =-0.1000 0.7000-0.1000 (  1625 PWs)   bands (ev):

    -3.7903   0.5829   3.1443   3.5774

          k = 0.8000-0.2000 0.8000 (  1619 PWs)   bands (ev):

    -3.0384  -0.4224   2.3035   3.5846

          k = 0.7000-0.1000 0.7000 (  1617 PWs)   bands (ev):

    -2.6161  -0.9003   1.7443   3.8009

          k = 0.6000 0.0000 0.6000 (  1608 PWs)   bands (ev):

    -3.1560  -0.3100   1.7172   4.1984

          k = 0.0000 0.8000 0.0000 (  1624 PWs)   bands (ev):

    -3.2404  -0.1720   3.3172   3.3172

          k = 0.9000-0.1000 0.9000 (  1623 PWs)   bands (ev):

    -2.5111  -1.0108   2.7180   3.2688

          k = 0.8000 0.0000 0.8000 (  1622 PWs)   bands (ev):

    -2.0320  -1.4320   1.9216   3.4365

          k = 0.0000-1.0000 0.0000 (  1604 PWs)   bands (ev):

    -1.8090  -1.8090   3.1597   3.1597

          k =-0.2000 0.4000 0.0000 (  1613 PWs)   bands (ev):

    -5.0921   2.6245   3.9186   5.0408

          k =-0.3000 0.5000-0.1000 (  1609 PWs)   bands (ev):

    -4.4799   1.2152   3.3258   4.6644

          k = 0.6000-0.4000 0.8000 (  1614 PWs)   bands (ev):

    -3.7309  -0.1505   3.0935   4.3134

          k = 0.5000-0.3000 0.7000 (  1608 PWs)   bands (ev):

    -3.2688  -0.8313   3.0334   4.1754

          k =-0.2000 0.6000 0.0000 (  1617 PWs)   bands (ev):

    -4.2534   1.2306   3.1900   3.9220

          k = 0.7000-0.3000 0.9000 (  1617 PWs)   bands (ev):

    -3.5319   0.1298   2.5646   3.5900

          k = 0.6000-0.2000 0.8000 (  1613 PWs)   bands (ev):

    -2.8788  -0.7357   2.1527   3.5340

          k = 0.5000-0.1000 0.7000 (  1613 PWs)   bands (ev):

    -3.0810  -0.4754   2.0004   3.7752

          k = 0.4000 0.0000 0.6000 (  1607 PWs)   bands (ev):

    -3.8188   0.4751   2.3020   4.2182

          k = 0.8000-0.2000 1.0000 (  1621 PWs)   bands (ev):

    -3.1214  -0.2567   2.7789   3.1102

          k = 0.7000-0.1000 0.9000 (  1625 PWs)   bands (ev):

    -2.3814  -1.0300   2.0663   3.0175

          k = 0.6000 0.0000 0.8000 (  1614 PWs)   bands (ev):

    -2.3849  -1.0047   1.6450   3.2886

          k =-0.2000-1.0000-0.0000 (  1624 PWs)   bands (ev):

    -1.7549  -1.7549   2.7375   2.7375

          k = 0.6000-0.2000 1.0000 (  1616 PWs)   bands (ev):

    -2.7986  -0.5539   2.0064   3.0034

          k = 0.5000-0.1000 0.9000 (  1608 PWs)   bands (ev):

    -2.2859  -1.0629   1.8469   2.7497

          k =-0.4000-1.0000-0.0000 (  1622 PWs)   bands (ev):

    -1.6593  -1.6593   2.2130   2.2130

     highest occupied level (ev):     6.0154

!    total energy              =     -19.26036737 Ry
     estimated scf accuracy    <          2.9E-09 Ry

     The total energy is the sum of the following terms:
     one-electron contribution =       5.04799143 Ry
     hartree contribution      =       1.11363389 Ry
     xc contribution           =      -8.62106311 Ry
     ewald contribution        =     -16.80092957 Ry

     convergence has been achieved in   6 iterations

     Forces acting on atoms (cartesian axes, Ry/au):

     atom    1 type  1   force =     0.00000000    0.00000000    0.00000000
     atom    2 type  1   force =     0.00000000    0.00000000    0.00000000

     Total force =     0.000000     Total SCF correction =     0.000000


     Computing stress (Cartesian axis) and pressure

          total   stress  (Ry/bohr**3)                   (kbar)     P=      -15.02
  -0.00010209   0.00000000  -0.00000000          -15.02        0.00       -0.00
   0.00000000  -0.00010209  -0.00000000            0.00      -15.02       -0.00
  -0.00000000  -0.00000000  -0.00010209           -0.00       -0.00      -15.02


     Writing all to output data dir ./Si_elastic_tetra.save/
 
     init_run     :      2.78s CPU      2.93s WALL (       1 calls)
     electrons    :     23.90s CPU     26.22s WALL (       1 calls)
     forces       :      0.69s CPU      0.75s WALL (       1 calls)
     stress       :      4.99s CPU      5.13s WALL (       1 calls)

     Called by init_run:
     wfcinit      :      1.16s CPU      1.19s WALL (       1 calls)
     potinit      :      0.07s CPU      0.09s WALL (       1 calls)
     hinit0       :      1.08s CPU      1.11s WALL (       1 calls)

     Called by electrons:
     c_bands      :     16.50s CPU     18.12s WALL (       7 calls)
     sum_band     :      4.98s CPU      5.36s WALL (       7 calls)
     v_of_rho     :      0.37s CPU      0.41s WALL (       7 calls)
     newd         :      2.26s CPU      2.54s WALL (       7 calls)
     mix_rho      :      0.07s CPU      0.08s WALL (       7 calls)

     Called by c_bands:
     init_us_2    :      1.32s CPU      1.40s WALL (     799 calls)
     init_us_2:cp :      1.30s CPU      1.39s WALL (     799 calls)
     ccgdiagg     :     13.26s CPU     14.20s WALL (     329 calls)
     wfcrot       :      3.51s CPU      3.65s WALL (     282 calls)

     Called by *cgdiagg:
     h_psi        :     13.71s CPU     14.38s WALL (    4244 calls)
     s_psi        :      1.33s CPU      1.56s WALL (    8206 calls)

     Called by h_psi:
     h_psi:calbec :      0.91s CPU      0.96s WALL (    4244 calls)
     vloc_psi     :     11.75s CPU     12.28s WALL (    4244 calls)
     add_vuspsi   :      0.77s CPU      0.87s WALL (    4244 calls)
     hs_1psi      :     11.38s CPU     12.04s WALL (    3962 calls)
     s_1psi       :      1.43s CPU      1.63s WALL (    3962 calls)

     General routines
     calbec       :      1.56s CPU      1.78s WALL (    8770 calls)
     fft          :      0.22s CPU      0.22s WALL (      49 calls)
     ffts         :      0.01s CPU      0.02s WALL (      14 calls)
     fftw         :     11.15s CPU     11.63s WALL (   11872 calls)
     interpolate  :      0.05s CPU      0.06s WALL (       7 calls)
 
     Parallel routines
 
     PWSCF        :     32.93s CPU     36.12s WALL

 
   This run was terminated on:  10:30:15  13Mar2022            

=------------------------------------------------------------------------------=
   JOB DONE.
=------------------------------------------------------------------------------=
