
     Program PWSCF v.7.0 starts on 14Mar2022 at 15:36:52 

     This program is part of the open-source Quantum ESPRESSO suite
     for quantum simulation of materials; please cite
         "P. Giannozzi et al., J. Phys.:Condens. Matter 21 395502 (2009);
         "P. Giannozzi et al., J. Phys.:Condens. Matter 29 465901 (2017);
         "P. Giannozzi et al., J. Chem. Phys. 152 154105 (2020);
          URL http://www.quantum-espresso.org", 
     in publications or presentations arising from this work. More details at
     http://www.quantum-espresso.org/quote

     Parallel version (MPI), running on     1 processors

     MPI processes distributed on     1 nodes
     90187 MiB available memory on the printing compute node when the environment starts
 
     Waiting for input...
     Reading input from standard input
Warning: card &CELL ignored
Warning: card  CELL_DYNAMICS = 'BFGS', ignored
Warning: card  PRESS=0.1D0, ignored
Warning: card / ignored

     Current dimensions of program PWSCF are:
     Max number of different atomic species (ntypx) = 10
     Max number of k-points (npk) =  40000
     Max angular momentum in pseudopotentials (lmaxx) =  4
     Message from routine setup:
     using ibrav=0 with symmetry is DISCOURAGED, use correct ibrav instead

     Subspace diagonalization in iterative solution of the eigenvalue problem:
     a serial algorithm will be used

 
     G-vector sticks info
     --------------------
     sticks:   dense  smooth     PW     G-vecs:    dense   smooth      PW
     Sum        2153     721    215                65619    12627    2113
 
     Using Slab Decomposition
 


     bravais-lattice index     =            0
     lattice parameter (alat)  =      10.1900  a.u.
     unit-cell volume          =     264.5222 (a.u.)^3
     number of atoms/cell      =            2
     number of atomic types    =            1
     number of electrons       =         8.00
     number of Kohn-Sham states=            4
     kinetic-energy cutoff     =      50.0000  Ry
     charge density cutoff     =     600.0000  Ry
     scf convergence threshold =      1.0E-08
     mixing beta               =       0.7000
     number of iterations used =            8  plain     mixing
     energy convergence thresh.=      1.0E-04
     force convergence thresh. =      1.0E-03
     Exchange-correlation= SLA  PZ   NOGX NOGC
                           (   1   1   0   0   0   0   0)
     nstep                     =           50


     celldm(1)=  10.190000  celldm(2)=   0.000000  celldm(3)=   0.000000
     celldm(4)=   0.000000  celldm(5)=   0.000000  celldm(6)=   0.000000

     crystal axes: (cart. coord. in units of alat)
               a(1) = (  -0.500000  -0.000500   0.500000 )  
               a(2) = (   0.000500   0.500000   0.500000 )  
               a(3) = (  -0.499500   0.499500   0.000000 )  

     reciprocal axes: (cart. coord. in units 2 pi/alat)
               b(1) = ( -0.999001 -0.999001  1.000000 )  
               b(2) = (  0.999001  0.999001  1.000000 )  
               b(3) = ( -1.001001  1.001001 -1.000000 )  


     PseudoPot. # 1 for Si read from file:
     ./Si_LDA.UPF
     MD5 check sum: b5ade7b37ee992b02096e360e546dc2d
     Pseudo is Ultrasoft + core correction, Zval =  4.0
     Generated by new atomic code, or converted to UPF format
     Using radial grid of  899 points,  6 beta functions with: 
                l(1) =   0
                l(2) =   0
                l(3) =   1
                l(4) =   1
                l(5) =   2
                l(6) =   2
     Q(r) pseudized with  8 coefficients,  rinner =    0.900   0.900   0.900
                                                       0.900   0.900

     atomic species   valence    mass     pseudopotential
        Si             4.00    28.08550     Si( 1.00)

      8 Sym. Ops., with inversion, found ( 4 have fractional translation)



   Cartesian axes

     site n.     atom                  positions (alat units)
         1           Si  tau(   1) = (   0.0000000   0.0000000   0.0000000  )
         2           Si  tau(   2) = (  -0.2497500   0.2497500   0.2500000  )

     number of k points=   171

     Number of k-points >= 100: set verbosity='high' to print them.

     Dense  grid:    65619 G-vectors     FFT dimensions: (  60,  60,  60)

     Smooth grid:    12627 G-vectors     FFT dimensions: (  36,  36,  36)

     Estimated max dynamical RAM per process >     262.38 MB

     Initial potential from superposition of free atoms

     starting charge       7.9988, renormalised to       8.0000
     Starting wfcs are    8 randomized atomic wfcs

     total cpu time spent up to now is        6.9 secs

     Self-consistent Calculation

     iteration #  1     ecut=    50.00 Ry     beta= 0.70
     CG style diagonalization
     ethr =  1.00E-02,  avg # of iterations =  3.0

     Threshold (ethr) on eigenvalues was too large:
     Diagonalizing with lowered threshold

     CG style diagonalization
     ethr =  7.40E-04,  avg # of iterations =  2.0

     total cpu time spent up to now is       24.2 secs

     total energy              =     -19.25691086 Ry
     estimated scf accuracy    <       0.05962913 Ry

     iteration #  2     ecut=    50.00 Ry     beta= 0.70
     CG style diagonalization
     ethr =  7.45E-04,  avg # of iterations =  3.0

     total cpu time spent up to now is       33.7 secs

     total energy              =     -19.25992992 Ry
     estimated scf accuracy    <       0.00197146 Ry

     iteration #  3     ecut=    50.00 Ry     beta= 0.70
     CG style diagonalization
     ethr =  2.46E-05,  avg # of iterations =  4.1

     total cpu time spent up to now is       46.0 secs

     total energy              =     -19.26052502 Ry
     estimated scf accuracy    <       0.00007117 Ry

     iteration #  4     ecut=    50.00 Ry     beta= 0.70
     CG style diagonalization
     ethr =  8.90E-07,  avg # of iterations =  4.3

     total cpu time spent up to now is       58.7 secs

     total energy              =     -19.26056239 Ry
     estimated scf accuracy    <       0.00001531 Ry

     iteration #  5     ecut=    50.00 Ry     beta= 0.70
     CG style diagonalization
     ethr =  1.91E-07,  avg # of iterations =  4.0

     total cpu time spent up to now is       70.7 secs

     total energy              =     -19.26056540 Ry
     estimated scf accuracy    <       0.00000005 Ry

     iteration #  6     ecut=    50.00 Ry     beta= 0.70
     CG style diagonalization
     ethr =  5.93E-10,  avg # of iterations =  5.9

     total cpu time spent up to now is       87.0 secs

     End of self-consistent calculation

     Number of k-points >= 100: set verbosity='high' to print the bands.

     highest occupied level (ev):     6.2335

!    total energy              =     -19.26056560 Ry
     estimated scf accuracy    <          4.0E-09 Ry

     The total energy is the sum of the following terms:
     one-electron contribution =       5.20623974 Ry
     hartree contribution      =       1.09603558 Ry
     xc contribution           =      -8.64650476 Ry
     ewald contribution        =     -16.91633617 Ry

     convergence has been achieved in   6 iterations

     Forces acting on atoms (cartesian axes, Ry/au):

     atom    1 type  1   force =    -0.00000000   -0.00000000   -0.00079211
     atom    2 type  1   force =     0.00000000    0.00000000    0.00079211

     Total force =     0.001120     Total SCF correction =     0.000000


     Computing stress (Cartesian axis) and pressure

          total   stress  (Ry/bohr**3)                   (kbar)     P=        4.34
   0.00002948  -0.00001452  -0.00000000            4.34       -2.14       -0.00
  -0.00001452   0.00002948   0.00000000           -2.14        4.34        0.00
   0.00000000   0.00000000   0.00002947            0.00        0.00        4.34


     BFGS Geometry Optimization
     Energy error            =      0.0E+00 Ry
     Gradient error          =      7.9E-04 Ry/Bohr

     bfgs converged in   1 scf cycles and   0 bfgs steps
     (criteria: energy <  1.0E-04 Ry, force <  1.0E-03 Ry/Bohr)

     End of BFGS Geometry Optimization

     Final energy             =     -19.2605656047 Ry
Begin final coordinates

ATOMIC_POSITIONS (crystal)
Si            0.0000000000        0.0000000000        0.0000000000
Si            0.2500000000        0.2500000000        0.2500000000
End final coordinates



     Writing all to output data dir ./Si_elastic_trigonal.save/
 
     init_run     :      6.06s CPU      6.33s WALL (       1 calls)
     electrons    :     73.47s CPU     80.15s WALL (       1 calls)
     forces       :      1.48s CPU      1.55s WALL (       1 calls)
     stress       :      8.80s CPU      8.94s WALL (       1 calls)

     Called by init_run:
     wfcinit      :      4.06s CPU      4.23s WALL (       1 calls)
     potinit      :      0.13s CPU      0.15s WALL (       1 calls)
     hinit0       :      1.28s CPU      1.30s WALL (       1 calls)

     Called by electrons:
     c_bands      :     59.10s CPU     64.92s WALL (       7 calls)
     sum_band     :     11.35s CPU     11.90s WALL (       7 calls)
     v_of_rho     :      0.37s CPU      0.42s WALL (       7 calls)
     newd         :      3.02s CPU      3.28s WALL (       7 calls)
     mix_rho      :      0.07s CPU      0.08s WALL (       7 calls)

     Called by c_bands:
     init_us_2    :      4.60s CPU      4.91s WALL (    2907 calls)
     init_us_2:cp :      4.52s CPU      4.86s WALL (    2907 calls)
     ccgdiagg     :     47.54s CPU     50.92s WALL (    1197 calls)
     wfcrot       :     12.54s CPU     13.06s WALL (    1026 calls)

     Called by *cgdiagg:
     h_psi        :     49.46s CPU     51.94s WALL (   15585 calls)
     s_psi        :      4.46s CPU      5.31s WALL (   30144 calls)

     Called by h_psi:
     h_psi:calbec :      3.09s CPU      3.25s WALL (   15585 calls)
     vloc_psi     :     42.70s CPU     44.72s WALL (   15585 calls)
     add_vuspsi   :      2.62s CPU      2.98s WALL (   15585 calls)
     hs_1psi      :     41.06s CPU     43.47s WALL (   14559 calls)
     s_1psi       :      4.87s CPU      5.54s WALL (   14559 calls)

     General routines
     calbec       :      5.19s CPU      5.96s WALL (   32196 calls)
     fft          :      0.22s CPU      0.22s WALL (      49 calls)
     ffts         :      0.02s CPU      0.02s WALL (      14 calls)
     fftw         :     40.38s CPU     42.21s WALL (   43482 calls)
     interpolate  :      0.05s CPU      0.07s WALL (       7 calls)
 
     Parallel routines
 
     PWSCF        :   1m30.52s CPU   1m38.98s WALL

 
   This run was terminated on:  15:38:31  14Mar2022            

=------------------------------------------------------------------------------=
   JOB DONE.
=------------------------------------------------------------------------------=
