
     Program PWSCF v.7.0 starts on 14Mar2022 at 15:32: 8 

     This program is part of the open-source Quantum ESPRESSO suite
     for quantum simulation of materials; please cite
         "P. Giannozzi et al., J. Phys.:Condens. Matter 21 395502 (2009);
         "P. Giannozzi et al., J. Phys.:Condens. Matter 29 465901 (2017);
         "P. Giannozzi et al., J. Chem. Phys. 152 154105 (2020);
          URL http://www.quantum-espresso.org", 
     in publications or presentations arising from this work. More details at
     http://www.quantum-espresso.org/quote

     Parallel version (MPI), running on     1 processors

     MPI processes distributed on     1 nodes
     90187 MiB available memory on the printing compute node when the environment starts
 
     Waiting for input...
     Reading input from standard input
Warning: card &CELL ignored
Warning: card  CELL_DYNAMICS = 'BFGS', ignored
Warning: card  PRESS=0.1D0, ignored
Warning: card / ignored

     Current dimensions of program PWSCF are:
     Max number of different atomic species (ntypx) = 10
     Max number of k-points (npk) =  40000
     Max angular momentum in pseudopotentials (lmaxx) =  4
     Message from routine setup:
     using ibrav=0 with symmetry is DISCOURAGED, use correct ibrav instead

     Subspace diagonalization in iterative solution of the eigenvalue problem:
     a serial algorithm will be used

 
     G-vector sticks info
     --------------------
     sticks:   dense  smooth     PW     G-vecs:    dense   smooth      PW
     Sum        2149     721    215                65643    12631    2121
 
     Using Slab Decomposition
 


     bravais-lattice index     =            0
     lattice parameter (alat)  =      10.1900  a.u.
     unit-cell volume          =     264.5214 (a.u.)^3
     number of atoms/cell      =            2
     number of atomic types    =            1
     number of electrons       =         8.00
     number of Kohn-Sham states=            4
     kinetic-energy cutoff     =      50.0000  Ry
     charge density cutoff     =     600.0000  Ry
     scf convergence threshold =      1.0E-08
     mixing beta               =       0.7000
     number of iterations used =            8  plain     mixing
     energy convergence thresh.=      1.0E-04
     force convergence thresh. =      1.0E-03
     Exchange-correlation= SLA  PZ   NOGX NOGC
                           (   1   1   0   0   0   0   0)
     nstep                     =           50


     celldm(1)=  10.190000  celldm(2)=   0.000000  celldm(3)=   0.000000
     celldm(4)=   0.000000  celldm(5)=   0.000000  celldm(6)=   0.000000

     crystal axes: (cart. coord. in units of alat)
               a(1) = (  -0.500000   0.001000   0.500000 )  
               a(2) = (  -0.001000   0.500000   0.500000 )  
               a(3) = (  -0.501000   0.501000   0.000000 )  

     reciprocal axes: (cart. coord. in units 2 pi/alat)
               b(1) = ( -1.002004 -1.002004  1.000000 )  
               b(2) = (  1.002004  1.002004  1.000000 )  
               b(3) = ( -0.998004  0.998004 -1.000000 )  


     PseudoPot. # 1 for Si read from file:
     ./Si_LDA.UPF
     MD5 check sum: b5ade7b37ee992b02096e360e546dc2d
     Pseudo is Ultrasoft + core correction, Zval =  4.0
     Generated by new atomic code, or converted to UPF format
     Using radial grid of  899 points,  6 beta functions with: 
                l(1) =   0
                l(2) =   0
                l(3) =   1
                l(4) =   1
                l(5) =   2
                l(6) =   2
     Q(r) pseudized with  8 coefficients,  rinner =    0.900   0.900   0.900
                                                       0.900   0.900

     atomic species   valence    mass     pseudopotential
        Si             4.00    28.08550     Si( 1.00)

      8 Sym. Ops., with inversion, found ( 4 have fractional translation)



   Cartesian axes

     site n.     atom                  positions (alat units)
         1           Si  tau(   1) = (   0.0000000   0.0000000   0.0000000  )
         2           Si  tau(   2) = (  -0.2505000   0.2505000   0.2500000  )

     number of k points=   171

     Number of k-points >= 100: set verbosity='high' to print them.

     Dense  grid:    65643 G-vectors     FFT dimensions: (  60,  60,  60)

     Smooth grid:    12631 G-vectors     FFT dimensions: (  36,  36,  36)

     Estimated max dynamical RAM per process >     262.46 MB

     Initial potential from superposition of free atoms

     starting charge       7.9988, renormalised to       8.0000
     Starting wfcs are    8 randomized atomic wfcs

     total cpu time spent up to now is        7.1 secs

     Self-consistent Calculation

     iteration #  1     ecut=    50.00 Ry     beta= 0.70
     CG style diagonalization
     ethr =  1.00E-02,  avg # of iterations =  3.0

     Threshold (ethr) on eigenvalues was too large:
     Diagonalizing with lowered threshold

     CG style diagonalization
     ethr =  7.40E-04,  avg # of iterations =  2.0

     total cpu time spent up to now is       24.3 secs

     total energy              =     -19.25689589 Ry
     estimated scf accuracy    <       0.05963744 Ry

     iteration #  2     ecut=    50.00 Ry     beta= 0.70
     CG style diagonalization
     ethr =  7.45E-04,  avg # of iterations =  3.0

     total cpu time spent up to now is       33.8 secs

     total energy              =     -19.25991702 Ry
     estimated scf accuracy    <       0.00197114 Ry

     iteration #  3     ecut=    50.00 Ry     beta= 0.70
     CG style diagonalization
     ethr =  2.46E-05,  avg # of iterations =  4.1

     total cpu time spent up to now is       46.0 secs

     total energy              =     -19.26051392 Ry
     estimated scf accuracy    <       0.00007118 Ry

     iteration #  4     ecut=    50.00 Ry     beta= 0.70
     CG style diagonalization
     ethr =  8.90E-07,  avg # of iterations =  4.3

     total cpu time spent up to now is       58.6 secs

     total energy              =     -19.26055083 Ry
     estimated scf accuracy    <       0.00001533 Ry

     iteration #  5     ecut=    50.00 Ry     beta= 0.70
     CG style diagonalization
     ethr =  1.92E-07,  avg # of iterations =  4.0

     total cpu time spent up to now is       70.4 secs

     total energy              =     -19.26055385 Ry
     estimated scf accuracy    <       0.00000004 Ry

     iteration #  6     ecut=    50.00 Ry     beta= 0.70
     CG style diagonalization
     ethr =  5.09E-10,  avg # of iterations =  6.0

     total cpu time spent up to now is       87.0 secs

     End of self-consistent calculation

     Number of k-points >= 100: set verbosity='high' to print the bands.

     highest occupied level (ev):     6.2360

!    total energy              =     -19.26055405 Ry
     estimated scf accuracy    <          5.1E-09 Ry

     The total energy is the sum of the following terms:
     one-electron contribution =       5.20621748 Ry
     hartree contribution      =       1.09605302 Ry
     xc contribution           =      -8.64650953 Ry
     ewald contribution        =     -16.91631502 Ry

     convergence has been achieved in   6 iterations

     Forces acting on atoms (cartesian axes, Ry/au):

     atom    1 type  1   force =     0.00000000    0.00000000    0.00158380
     atom    2 type  1   force =    -0.00000000   -0.00000000   -0.00158380

     Total force =     0.002240     Total SCF correction =     0.000001


     Computing stress (Cartesian axis) and pressure

          total   stress  (Ry/bohr**3)                   (kbar)     P=        4.35
   0.00002956   0.00002903  -0.00000000            4.35        4.27       -0.00
   0.00002903   0.00002956  -0.00000000            4.27        4.35       -0.00
  -0.00000000  -0.00000000   0.00002952           -0.00       -0.00        4.34


     BFGS Geometry Optimization
     Energy error            =      0.0E+00 Ry
     Gradient error          =      1.6E-03 Ry/Bohr

     number of scf cycles    =   1
     number of bfgs steps    =   0

     energy             new  =     -19.2605540535 Ry

     new trust radius        =       0.0015837977 bohr
     new conv_thr            =       0.0000000100 Ry


ATOMIC_POSITIONS (crystal)
Si            0.0001554267        0.0001554267       -0.0001554267
Si            0.2498445733        0.2498445733        0.2501554267



     Writing config-only to output data dir ./Si_elastic_trigonal.save/
     NEW-OLD atomic charge density approx. for the potential

     total cpu time spent up to now is       98.5 secs

     Self-consistent Calculation

     iteration #  1     ecut=    50.00 Ry     beta= 0.70
     CG style diagonalization
     ethr =  1.00E-06,  avg # of iterations =  2.0

     Threshold (ethr) on eigenvalues was too large:
     Diagonalizing with lowered threshold

     CG style diagonalization
     c_bands:  1 eigenvalues not converged
     c_bands:  1 eigenvalues not converged
     ethr =  9.04E-10,  avg # of iterations =  6.0

     total cpu time spent up to now is      122.9 secs

     total energy              =     -19.26055780 Ry
     estimated scf accuracy    <       0.00000009 Ry

     iteration #  2     ecut=    50.00 Ry     beta= 0.70
     CG style diagonalization
     ethr =  1.08E-09,  avg # of iterations =  3.0

     total cpu time spent up to now is      132.4 secs

     End of self-consistent calculation

     Number of k-points >= 100: set verbosity='high' to print the bands.

     highest occupied level (ev):     6.2441

!    total energy              =     -19.26055780 Ry
     estimated scf accuracy    <          4.7E-09 Ry

     The total energy is the sum of the following terms:
     one-electron contribution =       5.20625066 Ry
     hartree contribution      =       1.09605768 Ry
     xc contribution           =      -8.64651440 Ry
     ewald contribution        =     -16.91635175 Ry

     convergence has been achieved in   2 iterations

     Forces acting on atoms (cartesian axes, Ry/au):

     atom    1 type  1   force =    -0.00000000   -0.00000000    0.00069129
     atom    2 type  1   force =     0.00000000    0.00000000   -0.00069129

     Total force =     0.000978     Total SCF correction =     0.000006


     Computing stress (Cartesian axis) and pressure

          total   stress  (Ry/bohr**3)                   (kbar)     P=        4.35
   0.00002958   0.00002428  -0.00000000            4.35        3.57       -0.00
   0.00002428   0.00002958   0.00000000            3.57        4.35        0.00
   0.00000000  -0.00000000   0.00002953            0.00       -0.00        4.34

     Energy error            =      3.7E-06 Ry
     Gradient error          =      6.9E-04 Ry/Bohr

     bfgs converged in   2 scf cycles and   1 bfgs steps
     (criteria: energy <  1.0E-04 Ry, force <  1.0E-03 Ry/Bohr)

     End of BFGS Geometry Optimization

     Final energy             =     -19.2605578027 Ry

     File ./Si_elastic_trigonal.bfgs deleted, as requested
Begin final coordinates

ATOMIC_POSITIONS (crystal)
Si            0.0001554267        0.0001554267       -0.0001554267
Si            0.2498445733        0.2498445733        0.2501554267
End final coordinates



     Writing all to output data dir ./Si_elastic_trigonal.save/
 
     init_run     :      6.25s CPU      6.49s WALL (       1 calls)
     electrons    :    104.45s CPU    113.82s WALL (       2 calls)
     update_pot   :      0.38s CPU      0.39s WALL (       1 calls)
     forces       :      3.00s CPU      3.14s WALL (       2 calls)
     stress       :     18.29s CPU     18.59s WALL (       2 calls)

     Called by init_run:
     wfcinit      :      4.27s CPU      4.42s WALL (       1 calls)
     potinit      :      0.13s CPU      0.15s WALL (       1 calls)
     hinit0       :      1.29s CPU      1.31s WALL (       1 calls)

     Called by electrons:
     c_bands      :     84.19s CPU     92.39s WALL (      10 calls)
     sum_band     :     16.22s CPU     17.00s WALL (      10 calls)
     v_of_rho     :      0.53s CPU      0.57s WALL (      10 calls)
     newd         :      4.27s CPU      4.62s WALL (      10 calls)
     mix_rho      :      0.09s CPU      0.09s WALL (      10 calls)

     Called by c_bands:
     init_us_2    :      6.83s CPU      7.26s WALL (    4275 calls)
     init_us_2:cp :      6.71s CPU      7.19s WALL (    4275 calls)
     ccgdiagg     :     69.86s CPU     74.77s WALL (    1710 calls)
     wfcrot       :     14.50s CPU     15.03s WALL (    1197 calls)

     Called by *cgdiagg:
     h_psi        :     68.99s CPU     72.44s WALL (   22702 calls)
     s_psi        :      6.50s CPU      7.68s WALL (   44207 calls)

     Called by h_psi:
     h_psi:calbec :      4.53s CPU      4.76s WALL (   22702 calls)
     vloc_psi     :     59.22s CPU     61.99s WALL (   22702 calls)
     add_vuspsi   :      3.74s CPU      4.25s WALL (   22702 calls)
     hs_1psi      :     60.26s CPU     63.77s WALL (   21505 calls)
     s_1psi       :      7.22s CPU      8.19s WALL (   21505 calls)

     General routines
     calbec       :      7.80s CPU      8.92s WALL (   47627 calls)
     fft          :      0.33s CPU      0.34s WALL (      75 calls)
     ffts         :      0.02s CPU      0.02s WALL (      20 calls)
     fftw         :     56.20s CPU     58.76s WALL (   60794 calls)
     interpolate  :      0.06s CPU      0.09s WALL (      10 calls)
 
     Parallel routines
 
     PWSCF        :   2m13.60s CPU   2m24.88s WALL

 
   This run was terminated on:  15:34:33  14Mar2022            

=------------------------------------------------------------------------------=
   JOB DONE.
=------------------------------------------------------------------------------=
