
     Program PWSCF v.7.0 starts on 13Mar2022 at 10:35:35 

     This program is part of the open-source Quantum ESPRESSO suite
     for quantum simulation of materials; please cite
         "P. Giannozzi et al., J. Phys.:Condens. Matter 21 395502 (2009);
         "P. Giannozzi et al., J. Phys.:Condens. Matter 29 465901 (2017);
         "P. Giannozzi et al., J. Chem. Phys. 152 154105 (2020);
          URL http://www.quantum-espresso.org", 
     in publications or presentations arising from this work. More details at
     http://www.quantum-espresso.org/quote

     Parallel version (MPI), running on     1 processors

     MPI processes distributed on     1 nodes
     88676 MiB available memory on the printing compute node when the environment starts
 
     Waiting for input...
     Reading input from standard input
Warning: card &CELL ignored
Warning: card  CELL_DYNAMICS = 'BFGS', ignored
Warning: card  PRESS=0.1D0, ignored
Warning: card / ignored

     Current dimensions of program PWSCF are:
     Max number of different atomic species (ntypx) = 10
     Max number of k-points (npk) =  40000
     Max angular momentum in pseudopotentials (lmaxx) =  4
     Message from routine setup:
     using ibrav=0 with symmetry is DISCOURAGED, use correct ibrav instead

     Subspace diagonalization in iterative solution of the eigenvalue problem:
     a serial algorithm will be used

 
     G-vector sticks info
     --------------------
     sticks:   dense  smooth     PW     G-vecs:    dense   smooth      PW
     Sum        2213     745    241                67035    12935    2337
 
     Using Slab Decomposition
 


     bravais-lattice index     =            0
     lattice parameter (alat)  =      10.2600  a.u.
     unit-cell volume          =     269.9821 (a.u.)^3
     number of atoms/cell      =            2
     number of atomic types    =            1
     number of electrons       =         8.00
     number of Kohn-Sham states=            4
     kinetic-energy cutoff     =      50.0000  Ry
     charge density cutoff     =     600.0000  Ry
     scf convergence threshold =      1.0E-08
     mixing beta               =       0.7000
     number of iterations used =            8  plain     mixing
     Exchange-correlation= SLA  PZ   NOGX NOGC
                           (   1   1   0   0   0   0   0)

     celldm(1)=  10.260000  celldm(2)=   0.000000  celldm(3)=   0.000000
     celldm(4)=   0.000000  celldm(5)=   0.000000  celldm(6)=   0.000000

     crystal axes: (cart. coord. in units of alat)
               a(1) = (  -0.503000   0.000000   0.503000 )  
               a(2) = (   0.000000   0.503000   0.503000 )  
               a(3) = (  -0.494000   0.494000   0.000000 )  

     reciprocal axes: (cart. coord. in units 2 pi/alat)
               b(1) = ( -0.994036 -0.994036  0.994036 )  
               b(2) = (  0.994036  0.994036  0.994036 )  
               b(3) = ( -1.012146  1.012146 -1.012146 )  


     PseudoPot. # 1 for Si read from file:
     ./Si_LDA.UPF
     MD5 check sum: b5ade7b37ee992b02096e360e546dc2d
     Pseudo is Ultrasoft + core correction, Zval =  4.0
     Generated by new atomic code, or converted to UPF format
     Using radial grid of  899 points,  6 beta functions with: 
                l(1) =   0
                l(2) =   0
                l(3) =   1
                l(4) =   1
                l(5) =   2
                l(6) =   2
     Q(r) pseudized with  8 coefficients,  rinner =    0.900   0.900   0.900
                                                       0.900   0.900

     atomic species   valence    mass     pseudopotential
        Si             4.00    28.08550     Si( 1.00)

      4 Sym. Ops., with inversion, found ( 2 have fractional translation)



   Cartesian axes

     site n.     atom                  positions (alat units)
         1           Si  tau(   1) = (   0.0000000   0.0000000   0.0000000  )
         2           Si  tau(   2) = (  -0.2492500   0.2492500   0.2515000  )

     number of k points=   282

     Number of k-points >= 100: set verbosity='high' to print them.

     Dense  grid:    67035 G-vectors     FFT dimensions: (  60,  60,  60)

     Smooth grid:    12935 G-vectors     FFT dimensions: (  36,  36,  36)

     Estimated max dynamical RAM per process >     278.58 MB

     Initial potential from superposition of free atoms

     starting charge       7.9988, renormalised to       8.0000
     Starting wfcs are    8 randomized atomic wfcs

     total cpu time spent up to now is       10.1 secs

     Self-consistent Calculation

     iteration #  1     ecut=    50.00 Ry     beta= 0.70
     CG style diagonalization
     ethr =  1.00E-02,  avg # of iterations =  3.0

     Threshold (ethr) on eigenvalues was too large:
     Diagonalizing with lowered threshold

     CG style diagonalization
     ethr =  7.16E-04,  avg # of iterations =  2.0

     total cpu time spent up to now is       37.6 secs

     total energy              =     -19.25642971 Ry
     estimated scf accuracy    <       0.05776421 Ry

     iteration #  2     ecut=    50.00 Ry     beta= 0.70
     CG style diagonalization
     ethr =  7.22E-04,  avg # of iterations =  3.0

     total cpu time spent up to now is       52.9 secs

     total energy              =     -19.25925599 Ry
     estimated scf accuracy    <       0.00196981 Ry

     iteration #  3     ecut=    50.00 Ry     beta= 0.70
     CG style diagonalization
     ethr =  2.46E-05,  avg # of iterations =  4.2

     total cpu time spent up to now is       72.7 secs

     total energy              =     -19.25982583 Ry
     estimated scf accuracy    <       0.00006776 Ry

     iteration #  4     ecut=    50.00 Ry     beta= 0.70
     CG style diagonalization
     ethr =  8.47E-07,  avg # of iterations =  4.3

     total cpu time spent up to now is       93.0 secs

     total energy              =     -19.25986140 Ry
     estimated scf accuracy    <       0.00001461 Ry

     iteration #  5     ecut=    50.00 Ry     beta= 0.70
     CG style diagonalization
     ethr =  1.83E-07,  avg # of iterations =  3.9

     total cpu time spent up to now is      111.9 secs

     total energy              =     -19.25986415 Ry
     estimated scf accuracy    <       0.00000006 Ry

     iteration #  6     ecut=    50.00 Ry     beta= 0.70
     CG style diagonalization
     ethr =  7.42E-10,  avg # of iterations =  5.8

     total cpu time spent up to now is      138.2 secs

     End of self-consistent calculation

     Number of k-points >= 100: set verbosity='high' to print the bands.

     highest occupied level (ev):     6.0613

!    total energy              =     -19.25986434 Ry
     estimated scf accuracy    <          5.1E-09 Ry

     The total energy is the sum of the following terms:
     one-electron contribution =       5.04721973 Ry
     hartree contribution      =       1.11444248 Ry
     xc contribution           =      -8.62131166 Ry
     ewald contribution        =     -16.80021489 Ry

     convergence has been achieved in   6 iterations

     Forces acting on atoms (cartesian axes, Ry/au):

     atom    1 type  1   force =    -0.00350868    0.00350868   -0.00667710
     atom    2 type  1   force =     0.00350868   -0.00350868    0.00667710

     Total force =     0.011765     Total SCF correction =     0.000002


     Computing stress (Cartesian axis) and pressure

          total   stress  (Ry/bohr**3)                   (kbar)     P=      -14.50
  -0.00007879  -0.00012482   0.00006413          -11.59      -18.36        9.43
  -0.00012482  -0.00007879  -0.00006413          -18.36      -11.59       -9.43
   0.00006413  -0.00006413  -0.00013812            9.43       -9.43      -20.32


     Writing all to output data dir ./Si_elastic_tetra.save/
 
     init_run     :      9.19s CPU      9.54s WALL (       1 calls)
     electrons    :    118.06s CPU    128.06s WALL (       1 calls)
     forces       :      2.15s CPU      2.25s WALL (       1 calls)
     stress       :     12.41s CPU     12.57s WALL (       1 calls)

     Called by init_run:
     wfcinit      :      6.89s CPU      7.12s WALL (       1 calls)
     potinit      :      0.18s CPU      0.20s WALL (       1 calls)
     hinit0       :      1.53s CPU      1.55s WALL (       1 calls)

     Called by electrons:
     c_bands      :     98.30s CPU    107.20s WALL (       7 calls)
     sum_band     :     16.80s CPU     17.58s WALL (       7 calls)
     v_of_rho     :      0.37s CPU      0.41s WALL (       7 calls)
     newd         :      2.89s CPU      3.18s WALL (       7 calls)
     mix_rho      :      0.07s CPU      0.08s WALL (       7 calls)

     Called by c_bands:
     init_us_2    :      7.98s CPU      8.41s WALL (    4794 calls)
     init_us_2:cp :      7.84s CPU      8.32s WALL (    4794 calls)
     ccgdiagg     :     78.89s CPU     84.14s WALL (    1974 calls)
     wfcrot       :     21.03s CPU     21.84s WALL (    1692 calls)

     Called by *cgdiagg:
     h_psi        :     82.10s CPU     85.99s WALL (   25498 calls)
     s_psi        :      7.66s CPU      8.95s WALL (   49304 calls)

     Called by h_psi:
     h_psi:calbec :      5.20s CPU      5.46s WALL (   25498 calls)
     vloc_psi     :     70.71s CPU     73.85s WALL (   25498 calls)
     add_vuspsi   :      4.49s CPU      5.04s WALL (   25498 calls)
     hs_1psi      :     68.07s CPU     71.83s WALL (   23806 calls)
     s_1psi       :      8.22s CPU      9.26s WALL (   23806 calls)

     General routines
     calbec       :      8.84s CPU     10.03s WALL (   52688 calls)
     fft          :      0.21s CPU      0.22s WALL (      49 calls)
     ffts         :      0.02s CPU      0.02s WALL (      14 calls)
     fftw         :     67.01s CPU     69.90s WALL (   71300 calls)
     interpolate  :      0.05s CPU      0.06s WALL (       7 calls)
 
     Parallel routines
 
     PWSCF        :   2m22.59s CPU   2m35.95s WALL

 
   This run was terminated on:  10:38:11  13Mar2022            

=------------------------------------------------------------------------------=
   JOB DONE.
=------------------------------------------------------------------------------=
