
     Program PWSCF v.7.0 starts on 15Mar2022 at  0:36:33 

     This program is part of the open-source Quantum ESPRESSO suite
     for quantum simulation of materials; please cite
         "P. Giannozzi et al., J. Phys.:Condens. Matter 21 395502 (2009);
         "P. Giannozzi et al., J. Phys.:Condens. Matter 29 465901 (2017);
         "P. Giannozzi et al., J. Chem. Phys. 152 154105 (2020);
          URL http://www.quantum-espresso.org", 
     in publications or presentations arising from this work. More details at
     http://www.quantum-espresso.org/quote

     Parallel version (MPI), running on     1 processors

     MPI processes distributed on     1 nodes
     87989 MiB available memory on the printing compute node when the environment starts
 
     Waiting for input...
     Reading input from standard input
Warning: card &CELL ignored
Warning: card  CELL_DYNAMICS = 'BFGS', ignored
Warning: card  PRESS=0.1D0, ignored
Warning: card / ignored

     Current dimensions of program PWSCF are:
     Max number of different atomic species (ntypx) = 10
     Max number of k-points (npk) =  40000
     Max angular momentum in pseudopotentials (lmaxx) =  4
     Message from routine setup:
     using ibrav=0 with symmetry is DISCOURAGED, use correct ibrav instead

     Subspace diagonalization in iterative solution of the eigenvalue problem:
     a serial algorithm will be used

 
     G-vector sticks info
     --------------------
     sticks:   dense  smooth     PW     G-vecs:    dense   smooth      PW
     Sum        1069     433    139                23289     5961    1067
 
     Using Slab Decomposition
 


     bravais-lattice index     =            0
     lattice parameter (alat)  =      10.1900  a.u.
     unit-cell volume          =     264.5225 (a.u.)^3
     number of atoms/cell      =            2
     number of atomic types    =            1
     number of electrons       =         8.00
     number of Kohn-Sham states=            4
     kinetic-energy cutoff     =      30.0000  Ry
     charge density cutoff     =     300.0000  Ry
     scf convergence threshold =      1.0E-08
     mixing beta               =       0.7000
     number of iterations used =            8  plain     mixing
     energy convergence thresh.=      1.0E-04
     force convergence thresh. =      1.0E-03
     Exchange-correlation= SLA  PZ   NOGX NOGC
                           (   1   1   0   0   0   0   0)
     nstep                     =           50


     celldm(1)=  10.190000  celldm(2)=   0.000000  celldm(3)=   0.000000
     celldm(4)=   0.000000  celldm(5)=   0.000000  celldm(6)=   0.000000

     crystal axes: (cart. coord. in units of alat)
               a(1) = (  -0.500000   0.000000   0.500000 )  
               a(2) = (   0.000000   0.500000   0.500000 )  
               a(3) = (  -0.500000   0.500000   0.000000 )  

     reciprocal axes: (cart. coord. in units 2 pi/alat)
               b(1) = ( -1.000000 -1.000000  1.000000 )  
               b(2) = (  1.000000  1.000000  1.000000 )  
               b(3) = ( -1.000000  1.000000 -1.000000 )  


     PseudoPot. # 1 for Si read from file:
     ./Si_LDA.UPF
     MD5 check sum: b5ade7b37ee992b02096e360e546dc2d
     Pseudo is Ultrasoft + core correction, Zval =  4.0
     Generated by new atomic code, or converted to UPF format
     Using radial grid of  899 points,  6 beta functions with: 
                l(1) =   0
                l(2) =   0
                l(3) =   1
                l(4) =   1
                l(5) =   2
                l(6) =   2
     Q(r) pseudized with  8 coefficients,  rinner =    0.900   0.900   0.900
                                                       0.900   0.900

     atomic species   valence    mass     pseudopotential
        Si             4.00    28.08550     Si( 1.00)

     48 Sym. Ops., with inversion, found (24 have fractional translation)



   Cartesian axes

     site n.     atom                  positions (alat units)
         1           Si  tau(   1) = (   0.0000000   0.0000000   0.0000000  )
         2           Si  tau(   2) = (  -0.2500000   0.2500000   0.2500000  )

     number of k points=    29
                       cart. coord. in units 2pi/alat
        k(    1) = (   0.0000000   0.0000000   0.0000000), wk =   0.0039062
        k(    2) = (  -0.1250000   0.1250000  -0.1250000), wk =   0.0312500
        k(    3) = (  -0.2500000   0.2500000  -0.2500000), wk =   0.0312500
        k(    4) = (  -0.3750000   0.3750000  -0.3750000), wk =   0.0312500
        k(    5) = (   0.5000000  -0.5000000   0.5000000), wk =   0.0156250
        k(    6) = (   0.0000000   0.2500000   0.0000000), wk =   0.0234375
        k(    7) = (  -0.1250000   0.3750000  -0.1250000), wk =   0.0937500
        k(    8) = (  -0.2500000   0.5000000  -0.2500000), wk =   0.0937500
        k(    9) = (   0.6250000  -0.3750000   0.6250000), wk =   0.0937500
        k(   10) = (   0.5000000  -0.2500000   0.5000000), wk =   0.0937500
        k(   11) = (   0.3750000  -0.1250000   0.3750000), wk =   0.0937500
        k(   12) = (   0.2500000   0.0000000   0.2500000), wk =   0.0468750
        k(   13) = (   0.0000000   0.5000000   0.0000000), wk =   0.0234375
        k(   14) = (  -0.1250000   0.6250000  -0.1250000), wk =   0.0937500
        k(   15) = (   0.7500000  -0.2500000   0.7500000), wk =   0.0937500
        k(   16) = (   0.6250000  -0.1250000   0.6250000), wk =   0.0937500
        k(   17) = (   0.5000000   0.0000000   0.5000000), wk =   0.0468750
        k(   18) = (   0.0000000   0.7500000   0.0000000), wk =   0.0234375
        k(   19) = (   0.8750000  -0.1250000   0.8750000), wk =   0.0937500
        k(   20) = (   0.7500000   0.0000000   0.7500000), wk =   0.0468750
        k(   21) = (   0.0000000  -1.0000000   0.0000000), wk =   0.0117188
        k(   22) = (  -0.2500000   0.5000000   0.0000000), wk =   0.0937500
        k(   23) = (   0.6250000  -0.3750000   0.8750000), wk =   0.1875000
        k(   24) = (   0.5000000  -0.2500000   0.7500000), wk =   0.0937500
        k(   25) = (   0.7500000  -0.2500000   1.0000000), wk =   0.0937500
        k(   26) = (   0.6250000  -0.1250000   0.8750000), wk =   0.1875000
        k(   27) = (   0.5000000   0.0000000   0.7500000), wk =   0.0937500
        k(   28) = (  -0.2500000  -1.0000000   0.0000000), wk =   0.0468750
        k(   29) = (  -0.5000000  -1.0000000   0.0000000), wk =   0.0234375

     Dense  grid:    23289 G-vectors     FFT dimensions: (  40,  40,  40)

     Smooth grid:     5961 G-vectors     FFT dimensions: (  32,  32,  32)

     Estimated max dynamical RAM per process >      88.51 MB

     Initial potential from superposition of free atoms

     starting charge       7.9988, renormalised to       8.0000
     Starting wfcs are    8 randomized atomic wfcs

     total cpu time spent up to now is        2.0 secs

     Self-consistent Calculation

     iteration #  1     ecut=    30.00 Ry     beta= 0.70
     CG style diagonalization
     ethr =  1.00E-02,  avg # of iterations =  3.0

     Threshold (ethr) on eigenvalues was too large:
     Diagonalizing with lowered threshold

     CG style diagonalization
     ethr =  7.37E-04,  avg # of iterations =  2.0

     total cpu time spent up to now is        3.8 secs

     total energy              =     -19.25653282 Ry
     estimated scf accuracy    <       0.05986637 Ry

     iteration #  2     ecut=    30.00 Ry     beta= 0.70
     CG style diagonalization
     ethr =  7.48E-04,  avg # of iterations =  3.0

     total cpu time spent up to now is        4.8 secs

     total energy              =     -19.25958934 Ry
     estimated scf accuracy    <       0.00197048 Ry

     iteration #  3     ecut=    30.00 Ry     beta= 0.70
     CG style diagonalization
     ethr =  2.46E-05,  avg # of iterations =  4.1

     total cpu time spent up to now is        6.0 secs

     total energy              =     -19.26017562 Ry
     estimated scf accuracy    <       0.00007187 Ry

     iteration #  4     ecut=    30.00 Ry     beta= 0.70
     CG style diagonalization
     ethr =  8.98E-07,  avg # of iterations =  4.3

     total cpu time spent up to now is        7.2 secs

     total energy              =     -19.26021123 Ry
     estimated scf accuracy    <       0.00001541 Ry

     iteration #  5     ecut=    30.00 Ry     beta= 0.70
     CG style diagonalization
     ethr =  1.93E-07,  avg # of iterations =  4.0

     total cpu time spent up to now is        8.4 secs

     total energy              =     -19.26021418 Ry
     estimated scf accuracy    <       0.00000005 Ry

     iteration #  6     ecut=    30.00 Ry     beta= 0.70
     CG style diagonalization
     ethr =  6.57E-10,  avg # of iterations =  5.7

     total cpu time spent up to now is        9.9 secs

     End of self-consistent calculation

          k = 0.0000 0.0000 0.0000 (   725 PWs)   bands (ev):

    -5.8780   6.2328   6.2328   6.2328

          k =-0.1250 0.1250-0.1250 (   728 PWs)   bands (ev):

    -5.6701   4.6106   5.9369   5.9369

          k =-0.2500 0.2500-0.2500 (   745 PWs)   bands (ev):

    -5.0629   2.2462   5.4593   5.4593

          k =-0.3750 0.3750-0.3750 (   745 PWs)   bands (ev):

    -4.1480   0.1889   5.1298   5.1298

          k = 0.5000-0.5000 0.5000 (   754 PWs)   bands (ev):

    -3.4871  -0.8620   5.0174   5.0174

          k = 0.0000 0.2500 0.0000 (   729 PWs)   bands (ev):

    -5.6001   4.8996   5.4036   5.4036

          k =-0.1250 0.3750-0.1250 (   732 PWs)   bands (ev):

    -5.1226   2.9735   4.8832   4.9632

          k =-0.2500 0.5000-0.2500 (   736 PWs)   bands (ev):

    -4.2901   0.8735   4.3599   4.6135

          k = 0.6250-0.3750 0.6250 (   732 PWs)   bands (ev):

    -3.4021  -0.6267   3.9049   4.6420

          k = 0.5000-0.2500 0.5000 (   735 PWs)   bands (ev):

    -3.6556  -0.2450   3.7161   4.9468

          k = 0.3750-0.1250 0.3750 (   737 PWs)   bands (ev):

    -4.6032   1.5463   3.8631   5.4491

          k = 0.2500 0.0000 0.2500 (   737 PWs)   bands (ev):

    -5.3276   3.5236   4.5525   5.9392

          k = 0.0000 0.5000 0.0000 (   729 PWs)   bands (ev):

    -4.7763   2.7030   4.3002   4.3002

          k =-0.1250 0.6250-0.1250 (   728 PWs)   bands (ev):

    -4.0524   1.2564   3.4924   3.9777

          k = 0.7500-0.2500 0.7500 (   735 PWs)   bands (ev):

    -3.1029  -0.2203   2.6053   3.9830

          k = 0.6250-0.1250 0.6250 (   728 PWs)   bands (ev):

    -2.8896  -0.4888   2.1324   4.3095

          k = 0.5000 0.0000 0.5000 (   742 PWs)   bands (ev):

    -3.7925   0.7013   2.3713   4.8814

          k = 0.0000 0.7500 0.0000 (   733 PWs)   bands (ev):

    -3.4397   0.4476   3.5721   3.5721

          k = 0.8750-0.1250 0.8750 (   737 PWs)   bands (ev):

    -2.5239  -0.6531   2.7030   3.4953

          k = 0.7500 0.0000 0.7500 (   724 PWs)   bands (ev):

    -2.0656  -1.0623   1.8009   3.7587

          k = 0.0000-1.0000 0.0000 (   740 PWs)   bands (ev):

    -1.6582  -1.6582   3.3226   3.3226

          k =-0.2500 0.5000 0.0000 (   737 PWs)   bands (ev):

    -4.5233   1.9097   3.4419   4.7745

          k = 0.6250-0.3750 0.8750 (   734 PWs)   bands (ev):

    -3.6146   0.3248   2.8271   4.2560

          k = 0.5000-0.2500 0.7500 (   740 PWs)   bands (ev):

    -2.9405  -0.6497   2.7007   4.0188

          k = 0.7500-0.2500 1.0000 (   734 PWs)   bands (ev):

    -3.2349   0.2264   2.7785   3.3993

          k = 0.6250-0.1250 0.8750 (   726 PWs)   bands (ev):

    -2.3363  -0.7605   2.0540   3.1910

          k = 0.5000 0.0000 0.7500 (   732 PWs)   bands (ev):

    -2.6940  -0.3926   1.8805   3.5786

          k =-0.2500-1.0000 0.0000 (   730 PWs)   bands (ev):

    -1.5745  -1.5745   2.7223   2.7223

          k =-0.5000-1.0000 0.0000 (   724 PWs)   bands (ev):

    -1.4815  -1.4815   2.2637   2.2637

     highest occupied level (ev):     6.2328

!    total energy              =     -19.26021439 Ry
     estimated scf accuracy    <          3.0E-09 Ry

     The total energy is the sum of the following terms:
     one-electron contribution =       5.20634434 Ry
     hartree contribution      =       1.09680905 Ry
     xc contribution           =      -8.64702455 Ry
     ewald contribution        =     -16.91634322 Ry

     convergence has been achieved in   6 iterations

     Forces acting on atoms (cartesian axes, Ry/au):

     atom    1 type  1   force =     0.00000000    0.00000000    0.00000000
     atom    2 type  1   force =     0.00000000    0.00000000    0.00000000

     Total force =     0.000000     Total SCF correction =     0.000000


     Computing stress (Cartesian axis) and pressure

          total   stress  (Ry/bohr**3)                   (kbar)     P=        4.42
   0.00003007   0.00000000   0.00000000            4.42        0.00        0.00
   0.00000000   0.00003007   0.00000000            0.00        4.42        0.00
  -0.00000000  -0.00000000   0.00003007           -0.00       -0.00        4.42


     BFGS Geometry Optimization
     Energy error            =      0.0E+00 Ry
     Gradient error          =      0.0E+00 Ry/Bohr

     bfgs converged in   1 scf cycles and   0 bfgs steps
     (criteria: energy <  1.0E-04 Ry, force <  1.0E-03 Ry/Bohr)

     End of BFGS Geometry Optimization

     Final energy             =     -19.2602143883 Ry
Begin final coordinates

ATOMIC_POSITIONS (crystal)
Si            0.0000000000        0.0000000000        0.0000000000
Si            0.2500000000        0.2500000000        0.2500000000
End final coordinates



     Writing all to output data dir ./Si_elastic_isotropic.save/
 
     init_run     :      1.31s CPU      1.37s WALL (       1 calls)
     electrons    :      7.05s CPU      7.99s WALL (       1 calls)
     forces       :      0.22s CPU      0.25s WALL (       1 calls)
     stress       :      1.62s CPU      1.64s WALL (       1 calls)

     Called by init_run:
     wfcinit      :      0.32s CPU      0.34s WALL (       1 calls)
     potinit      :      0.02s CPU      0.03s WALL (       1 calls)
     hinit0       :      0.80s CPU      0.82s WALL (       1 calls)

     Called by electrons:
     c_bands      :      4.69s CPU      5.41s WALL (       7 calls)
     sum_band     :      1.59s CPU      1.70s WALL (       7 calls)
     v_of_rho     :      0.11s CPU      0.11s WALL (       7 calls)
     newd         :      0.74s CPU      0.84s WALL (       7 calls)
     mix_rho      :      0.02s CPU      0.02s WALL (       7 calls)

     Called by c_bands:
     init_us_2    :      0.37s CPU      0.41s WALL (     493 calls)
     init_us_2:cp :      0.36s CPU      0.40s WALL (     493 calls)
     ccgdiagg     :      3.74s CPU      4.08s WALL (     203 calls)
     wfcrot       :      0.98s CPU      1.04s WALL (     174 calls)

     Called by *cgdiagg:
     h_psi        :      3.85s CPU      4.14s WALL (    2607 calls)
     s_psi        :      0.28s CPU      0.32s WALL (    5040 calls)

     Called by h_psi:
     h_psi:calbec :      0.32s CPU      0.34s WALL (    2607 calls)
     vloc_psi     :      3.21s CPU      3.44s WALL (    2607 calls)
     add_vuspsi   :      0.19s CPU      0.22s WALL (    2607 calls)
     hs_1psi      :      3.24s CPU      3.51s WALL (    2433 calls)
     s_1psi       :      0.35s CPU      0.39s WALL (    2433 calls)

     General routines
     calbec       :      0.46s CPU      0.52s WALL (    5388 calls)
     fft          :      0.06s CPU      0.07s WALL (      49 calls)
     ffts         :      0.01s CPU      0.01s WALL (      14 calls)
     fftw         :      2.82s CPU      3.01s WALL (    7302 calls)
     interpolate  :      0.02s CPU      0.02s WALL (       7 calls)
 
     Parallel routines
 
     PWSCF        :     10.73s CPU     12.17s WALL

 
   This run was terminated on:   0:36:45  15Mar2022            

=------------------------------------------------------------------------------=
   JOB DONE.
=------------------------------------------------------------------------------=
