
     Program PWSCF v.7.0 starts on 15Mar2022 at  0:36:46 

     This program is part of the open-source Quantum ESPRESSO suite
     for quantum simulation of materials; please cite
         "P. Giannozzi et al., J. Phys.:Condens. Matter 21 395502 (2009);
         "P. Giannozzi et al., J. Phys.:Condens. Matter 29 465901 (2017);
         "P. Giannozzi et al., J. Chem. Phys. 152 154105 (2020);
          URL http://www.quantum-espresso.org", 
     in publications or presentations arising from this work. More details at
     http://www.quantum-espresso.org/quote

     Parallel version (MPI), running on     1 processors

     MPI processes distributed on     1 nodes
     87988 MiB available memory on the printing compute node when the environment starts
 
     Waiting for input...
     Reading input from standard input
Warning: card &CELL ignored
Warning: card  CELL_DYNAMICS = 'BFGS', ignored
Warning: card  PRESS=0.1D0, ignored
Warning: card / ignored

     Current dimensions of program PWSCF are:
     Max number of different atomic species (ntypx) = 10
     Max number of k-points (npk) =  40000
     Max angular momentum in pseudopotentials (lmaxx) =  4
     Message from routine setup:
     using ibrav=0 with symmetry is DISCOURAGED, use correct ibrav instead

     Subspace diagonalization in iterative solution of the eigenvalue problem:
     a serial algorithm will be used

 
     G-vector sticks info
     --------------------
     sticks:   dense  smooth     PW     G-vecs:    dense   smooth      PW
     Sum        1069     433    139                23239     5913    1067
 
     Using Slab Decomposition
 


     bravais-lattice index     =            0
     lattice parameter (alat)  =      10.1900  a.u.
     unit-cell volume          =     264.5193 (a.u.)^3
     number of atoms/cell      =            2
     number of atomic types    =            1
     number of electrons       =         8.00
     number of Kohn-Sham states=            4
     kinetic-energy cutoff     =      30.0000  Ry
     charge density cutoff     =     300.0000  Ry
     scf convergence threshold =      1.0E-08
     mixing beta               =       0.7000
     number of iterations used =            8  plain     mixing
     energy convergence thresh.=      1.0E-04
     force convergence thresh. =      1.0E-03
     Exchange-correlation= SLA  PZ   NOGX NOGC
                           (   1   1   0   0   0   0   0)
     nstep                     =           50


     celldm(1)=  10.190000  celldm(2)=   0.000000  celldm(3)=   0.000000
     celldm(4)=   0.000000  celldm(5)=   0.000000  celldm(6)=   0.000000

     crystal axes: (cart. coord. in units of alat)
               a(1) = (  -0.501000   0.000000   0.498000 )  
               a(2) = (   0.000000   0.501000   0.498000 )  
               a(3) = (  -0.501000   0.501000   0.000000 )  

     reciprocal axes: (cart. coord. in units 2 pi/alat)
               b(1) = ( -0.998004 -0.998004  1.004016 )  
               b(2) = (  0.998004  0.998004  1.004016 )  
               b(3) = ( -0.998004  0.998004 -1.004016 )  


     PseudoPot. # 1 for Si read from file:
     ./Si_LDA.UPF
     MD5 check sum: b5ade7b37ee992b02096e360e546dc2d
     Pseudo is Ultrasoft + core correction, Zval =  4.0
     Generated by new atomic code, or converted to UPF format
     Using radial grid of  899 points,  6 beta functions with: 
                l(1) =   0
                l(2) =   0
                l(3) =   1
                l(4) =   1
                l(5) =   2
                l(6) =   2
     Q(r) pseudized with  8 coefficients,  rinner =    0.900   0.900   0.900
                                                       0.900   0.900

     atomic species   valence    mass     pseudopotential
        Si             4.00    28.08550     Si( 1.00)

     16 Sym. Ops., with inversion, found ( 8 have fractional translation)



   Cartesian axes

     site n.     atom                  positions (alat units)
         1           Si  tau(   1) = (   0.0000000   0.0000000   0.0000000  )
         2           Si  tau(   2) = (  -0.2505000   0.2505000   0.2490000  )

     number of k points=    59
                       cart. coord. in units 2pi/alat
        k(    1) = (   0.0000000   0.0000000   0.0000000), wk =   0.0039062
        k(    2) = (  -0.1247505   0.1247505  -0.1255020), wk =   0.0312500
        k(    3) = (  -0.2495010   0.2495010  -0.2510040), wk =   0.0312500
        k(    4) = (  -0.3742515   0.3742515  -0.3765060), wk =   0.0312500
        k(    5) = (   0.4990020  -0.4990020   0.5020080), wk =   0.0156250
        k(    6) = (   0.0000000   0.2495010   0.0000000), wk =   0.0156250
        k(    7) = (  -0.1247505   0.3742515  -0.1255020), wk =   0.0625000
        k(    8) = (  -0.2495010   0.4990020  -0.2510040), wk =   0.0625000
        k(    9) = (   0.6237525  -0.3742515   0.6275100), wk =   0.0625000
        k(   10) = (   0.4990020  -0.2495010   0.5020080), wk =   0.0625000
        k(   11) = (   0.3742515  -0.1247505   0.3765060), wk =   0.0625000
        k(   12) = (   0.2495010   0.0000000   0.2510040), wk =   0.0312500
        k(   13) = (   0.0000000   0.4990020   0.0000000), wk =   0.0156250
        k(   14) = (  -0.1247505   0.6237525  -0.1255020), wk =   0.0625000
        k(   15) = (   0.7485030  -0.2495010   0.7530120), wk =   0.0625000
        k(   16) = (   0.6237525  -0.1247505   0.6275100), wk =   0.0625000
        k(   17) = (   0.4990020   0.0000000   0.5020080), wk =   0.0312500
        k(   18) = (   0.0000000   0.7485030  -0.0000000), wk =   0.0156250
        k(   19) = (   0.8732535  -0.1247505   0.8785141), wk =   0.0625000
        k(   20) = (   0.7485030   0.0000000   0.7530120), wk =   0.0312500
        k(   21) = (   0.0000000  -0.9980040   0.0000000), wk =   0.0078125
        k(   22) = (   0.0000000   0.0000000   0.2510040), wk =   0.0078125
        k(   23) = (  -0.2495010   0.2495010   0.0000000), wk =   0.0156250
        k(   24) = (  -0.3742515   0.3742515  -0.1255020), wk =   0.0312500
        k(   25) = (   0.4990020  -0.4990020   0.7530120), wk =   0.0312500
        k(   26) = (   0.3742515  -0.3742515   0.6275100), wk =   0.0312500
        k(   27) = (   0.2495010  -0.2495010   0.5020080), wk =   0.0312500
        k(   28) = (   0.1247505  -0.1247505   0.3765060), wk =   0.0312500
        k(   29) = (  -0.2495010   0.4990020  -0.0000000), wk =   0.0312500
        k(   30) = (   0.6237525  -0.3742515   0.8785141), wk =   0.0625000
        k(   31) = (   0.4990020  -0.2495010   0.7530120), wk =   0.0625000
        k(   32) = (   0.3742515  -0.1247505   0.6275100), wk =   0.0625000
        k(   33) = (   0.2495010   0.0000000   0.5020080), wk =   0.0312500
        k(   34) = (   0.0000000   0.4990020   0.2510040), wk =   0.0312500
        k(   35) = (   0.7485030  -0.2495010   1.0040161), wk =   0.0312500
        k(   36) = (   0.6237525  -0.1247505   0.8785141), wk =   0.0625000
        k(   37) = (   0.4990020   0.0000000   0.7530120), wk =   0.0312500
        k(   38) = (  -0.8732535  -0.3742515  -0.6275100), wk =   0.0625000
        k(   39) = (  -0.9980040  -0.2495010  -0.7530120), wk =   0.0312500
        k(   40) = (  -0.2495010  -0.9980040   0.0000000), wk =   0.0156250
        k(   41) = (  -0.7485030  -0.2495010  -0.5020080), wk =   0.0312500
        k(   42) = (  -0.8732535  -0.1247505  -0.6275100), wk =   0.0625000
        k(   43) = (   0.0000000  -0.9980040   0.2510040), wk =   0.0156250
        k(   44) = (  -0.7485030  -0.0000000  -0.5020080), wk =   0.0312500
        k(   45) = (   0.0000000   0.0000000   0.5020080), wk =   0.0078125
        k(   46) = (   0.4990020  -0.4990020   1.0040161), wk =   0.0156250
        k(   47) = (   0.3742515  -0.3742515   0.8785141), wk =   0.0312500
        k(   48) = (   0.2495010  -0.2495010   0.7530120), wk =   0.0312500
        k(   49) = (   0.1247505  -0.1247505   0.6275100), wk =   0.0312500
        k(   50) = (   0.4990020  -0.2495010   1.0040161), wk =   0.0312500
        k(   51) = (   0.3742515  -0.1247505   0.8785141), wk =   0.0625000
        k(   52) = (   0.2495010   0.0000000   0.7530120), wk =   0.0312500
        k(   53) = (  -0.4990020  -0.9980040   0.0000000), wk =   0.0156250
        k(   54) = (   0.0000000  -0.9980040   0.5020080), wk =   0.0078125
        k(   55) = (   0.0000000   0.0000000   0.7530120), wk =   0.0078125
        k(   56) = (   0.2495010  -0.2495010   1.0040161), wk =   0.0156250
        k(   57) = (   0.1247505  -0.1247505   0.8785141), wk =   0.0312500
        k(   58) = (  -0.7485030  -0.9980040   0.0000000), wk =   0.0156250
        k(   59) = (   0.0000000   0.0000000  -1.0040161), wk =   0.0039062

     Dense  grid:    23239 G-vectors     FFT dimensions: (  40,  40,  40)

     Smooth grid:     5913 G-vectors     FFT dimensions: (  32,  32,  32)

     Estimated max dynamical RAM per process >      89.68 MB

     Initial potential from superposition of free atoms

     starting charge       7.9988, renormalised to       8.0000
     Starting wfcs are    8 randomized atomic wfcs

     total cpu time spent up to now is        2.3 secs

     Self-consistent Calculation

     iteration #  1     ecut=    30.00 Ry     beta= 0.70
     CG style diagonalization
     ethr =  1.00E-02,  avg # of iterations =  3.0

     Threshold (ethr) on eigenvalues was too large:
     Diagonalizing with lowered threshold

     CG style diagonalization
     ethr =  7.38E-04,  avg # of iterations =  2.0

     total cpu time spent up to now is        5.5 secs

     total energy              =     -19.25650739 Ry
     estimated scf accuracy    <       0.05988987 Ry

     iteration #  2     ecut=    30.00 Ry     beta= 0.70
     CG style diagonalization
     ethr =  7.49E-04,  avg # of iterations =  3.0

     total cpu time spent up to now is        7.3 secs

     total energy              =     -19.25957000 Ry
     estimated scf accuracy    <       0.00196847 Ry

     iteration #  3     ecut=    30.00 Ry     beta= 0.70
     CG style diagonalization
     ethr =  2.46E-05,  avg # of iterations =  4.1

     total cpu time spent up to now is        9.5 secs

     total energy              =     -19.26015645 Ry
     estimated scf accuracy    <       0.00007181 Ry

     iteration #  4     ecut=    30.00 Ry     beta= 0.70
     CG style diagonalization
     ethr =  8.98E-07,  avg # of iterations =  4.3

     total cpu time spent up to now is       11.8 secs

     total energy              =     -19.26019253 Ry
     estimated scf accuracy    <       0.00001533 Ry

     iteration #  5     ecut=    30.00 Ry     beta= 0.70
     CG style diagonalization
     ethr =  1.92E-07,  avg # of iterations =  4.0

     total cpu time spent up to now is       14.0 secs

     total energy              =     -19.26019547 Ry
     estimated scf accuracy    <       0.00000005 Ry

     iteration #  6     ecut=    30.00 Ry     beta= 0.70
     CG style diagonalization
     ethr =  6.34E-10,  avg # of iterations =  5.7

     total cpu time spent up to now is       16.8 secs

     End of self-consistent calculation

          k = 0.0000 0.0000 0.0000 (   725 PWs)   bands (ev):

    -5.8779   6.2189   6.2189   6.2611

          k =-0.1248 0.1248-0.1255 (   730 PWs)   bands (ev):

    -5.6700   4.6107   5.9203   5.9540

          k =-0.2495 0.2495-0.2510 (   741 PWs)   bands (ev):

    -5.0628   2.2464   5.4372   5.4818

          k =-0.3743 0.3743-0.3765 (   745 PWs)   bands (ev):

    -4.1478   0.1891   5.1029   5.1570

          k = 0.4990-0.4990 0.5020 (   742 PWs)   bands (ev):

    -3.4869  -0.8619   4.9887   5.0465

          k = 0.0000 0.2495 0.0000 (   733 PWs)   bands (ev):

    -5.6010   4.8870   5.3995   5.4256

          k =-0.1248 0.3743-0.1255 (   735 PWs)   bands (ev):

    -5.1244   2.9725   4.8917   4.9603

          k =-0.2495 0.4990-0.2510 (   735 PWs)   bands (ev):

    -4.2925   0.8755   4.3469   4.6277

          k = 0.6238-0.3743 0.6275 (   736 PWs)   bands (ev):

    -3.4036  -0.6258   3.8901   4.6574

          k = 0.4990-0.2495 0.5020 (   740 PWs)   bands (ev):

    -3.6539  -0.2480   3.7022   4.9625

          k = 0.3743-0.1248 0.3765 (   738 PWs)   bands (ev):

    -4.6014   1.5428   3.8517   5.4634

          k = 0.2495 0.0000 0.2510 (   745 PWs)   bands (ev):

    -5.3265   3.5227   4.5423   5.9506

          k = 0.0000 0.4990 0.0000 (   729 PWs)   bands (ev):

    -4.7799   2.6889   4.3058   4.3193

          k =-0.1248 0.6238-0.1255 (   732 PWs)   bands (ev):

    -4.0575   1.2490   3.4945   3.9918

          k = 0.7485-0.2495 0.7530 (   734 PWs)   bands (ev):

    -3.1081  -0.2220   2.5975   3.9984

          k = 0.6238-0.1248 0.6275 (   727 PWs)   bands (ev):

    -2.8885  -0.4951   2.1216   4.3258

          k = 0.4990 0.0000 0.5020 (   739 PWs)   bands (ev):

    -3.7897   0.6943   2.3602   4.8975

          k = 0.0000 0.7485-0.0000 (   729 PWs)   bands (ev):

    -3.4474   0.4329   3.5840   3.5899

          k = 0.8733-0.1248 0.8785 (   735 PWs)   bands (ev):

    -2.5330  -0.6645   2.7117   3.5110

          k = 0.7485 0.0000 0.7530 (   726 PWs)   bands (ev):

    -2.0688  -1.0731   1.7998   3.7749

          k = 0.0000-0.9980 0.0000 (   740 PWs)   bands (ev):

    -1.6702  -1.6702   3.3384   3.3384

          k = 0.0000 0.0000 0.2510 (   725 PWs)   bands (ev):

    -5.5980   4.9252   5.3866   5.3866

          k =-0.2495 0.2495 0.0000 (   741 PWs)   bands (ev):

    -5.3293   3.5258   4.5736   5.9168

          k =-0.3743 0.3743-0.1255 (   737 PWs)   bands (ev):

    -4.6065   1.5539   3.8863   5.4209

          k = 0.4990-0.4990 0.7530 (   737 PWs)   bands (ev):

    -3.6586  -0.2385   3.7440   4.9164

          k = 0.3743-0.3743 0.6275 (   738 PWs)   bands (ev):

    -3.3987  -0.6282   3.9341   4.6128

          k = 0.2495-0.2495 0.5020 (   735 PWs)   bands (ev):

    -4.2849   0.8700   4.3845   4.5877

          k = 0.1248-0.1248 0.3765 (   734 PWs)   bands (ev):

    -5.1187   2.9757   4.8620   4.9747

          k =-0.2495 0.4990-0.0000 (   735 PWs)   bands (ev):

    -4.5275   1.9136   3.4634   4.7573

          k = 0.6238-0.3743 0.8785 (   734 PWs)   bands (ev):

    -3.6197   0.3332   2.8461   4.2394

          k = 0.4990-0.2495 0.7530 (   733 PWs)   bands (ev):

    -2.9391  -0.6475   2.7078   4.0163

          k = 0.3743-0.1248 0.6275 (   734 PWs)   bands (ev):

    -3.6070   0.3220   2.8182   4.2687

          k = 0.2495 0.0000 0.5020 (   735 PWs)   bands (ev):

    -4.5169   1.9134   3.4237   4.7861

          k = 0.0000 0.4990 0.2510 (   737 PWs)   bands (ev):

    -4.5252   1.9024   3.4392   4.7808

          k = 0.7485-0.2495 1.0040 (   732 PWs)   bands (ev):

    -3.2421   0.2226   2.7988   3.3994

          k = 0.6238-0.1248 0.8785 (   731 PWs)   bands (ev):

    -2.3401  -0.7612   2.0566   3.2045

          k = 0.4990 0.0000 0.7530 (   731 PWs)   bands (ev):

    -2.6868  -0.3968   1.8688   3.5998

          k =-0.8733-0.3743-0.6275 (   736 PWs)   bands (ev):

    -3.6166   0.3196   2.8173   4.2610

          k =-0.9980-0.2495-0.7530 (   733 PWs)   bands (ev):

    -3.2410   0.2151   2.7809   3.4046

          k =-0.2495-0.9980 0.0000 (   730 PWs)   bands (ev):

    -1.5830  -1.5830   2.7367   2.7367

          k =-0.7485-0.2495-0.5020 (   732 PWs)   bands (ev):

    -2.9426  -0.6536   2.6863   4.0253

          k =-0.8733-0.1248-0.6275 (   727 PWs)   bands (ev):

    -2.3422  -0.7693   2.0501   3.1933

          k = 0.0000-0.9980 0.2510 (   730 PWs)   bands (ev):

    -1.5847  -1.5847   2.7275   2.7275

          k =-0.7485-0.0000-0.5020 (   729 PWs)   bands (ev):

    -2.6967  -0.4022   1.8751   3.5788

          k = 0.0000 0.0000 0.5020 (   729 PWs)   bands (ev):

    -4.7686   2.7316   4.2764   4.2764

          k = 0.4990-0.4990 1.0040 (   738 PWs)   bands (ev):

    -3.7977   0.7160   2.3940   4.8495

          k = 0.3743-0.3743 0.8785 (   728 PWs)   bands (ev):

    -2.8911  -0.4757   2.1546   4.2775

          k = 0.2495-0.2495 0.7530 (   733 PWs)   bands (ev):

    -3.0921  -0.2164   2.6214   3.9529

          k = 0.1248-0.1248 0.6275 (   732 PWs)   bands (ev):

    -4.0416   1.2712   3.4891   3.9506

          k = 0.4990-0.2495 1.0040 (   728 PWs)   bands (ev):

    -2.6979  -0.3784   1.8982   3.5579

          k = 0.3743-0.1248 0.8785 (   728 PWs)   bands (ev):

    -2.3262  -0.7507   2.0557   3.1763

          k = 0.2495 0.0000 0.7530 (   732 PWs)   bands (ev):

    -3.2211   0.2416   2.7564   3.3948

          k =-0.4990-0.9980 0.0000 (   724 PWs)   bands (ev):

    -1.4772  -1.4772   2.2651   2.2651

          k = 0.0000-0.9980 0.5020 (   724 PWs)   bands (ev):

    -1.4896  -1.4896   2.2617   2.2617

          k = 0.0000 0.0000 0.7530 (   741 PWs)   bands (ev):

    -3.4238   0.4773   3.5431   3.5431

          k = 0.2495-0.2495 1.0040 (   734 PWs)   bands (ev):

    -2.0587  -1.0403   1.8038   3.7269

          k = 0.1248-0.1248 0.8785 (   737 PWs)   bands (ev):

    -2.5053  -0.6299   2.6863   3.4647

          k =-0.7485-0.9980 0.0000 (   734 PWs)   bands (ev):

    -1.5552  -1.5552   2.7036   2.7036

          k = 0.0000 0.0000-1.0040 (   740 PWs)   bands (ev):

    -1.6337  -1.6337   3.2918   3.2918

     highest occupied level (ev):     6.2611

!    total energy              =     -19.26019567 Ry
     estimated scf accuracy    <          2.9E-09 Ry

     The total energy is the sum of the following terms:
     one-electron contribution =       5.20659688 Ry
     hartree contribution      =       1.09672877 Ry
     xc contribution           =      -8.64701707 Ry
     ewald contribution        =     -16.91650425 Ry

     convergence has been achieved in   6 iterations

     Forces acting on atoms (cartesian axes, Ry/au):

     atom    1 type  1   force =     0.00000000    0.00000000    0.00000000
     atom    2 type  1   force =     0.00000000    0.00000000    0.00000000

     Total force =     0.000000     Total SCF correction =     0.000000


     Computing stress (Cartesian axis) and pressure

          total   stress  (Ry/bohr**3)                   (kbar)     P=        4.42
   0.00001702  -0.00000000   0.00000000            2.50       -0.00        0.00
  -0.00000000   0.00001702  -0.00000000           -0.00        2.50       -0.00
   0.00000000   0.00000000   0.00005612            0.00        0.00        8.26


     BFGS Geometry Optimization
     Energy error            =      0.0E+00 Ry
     Gradient error          =      0.0E+00 Ry/Bohr

     bfgs converged in   1 scf cycles and   0 bfgs steps
     (criteria: energy <  1.0E-04 Ry, force <  1.0E-03 Ry/Bohr)

     End of BFGS Geometry Optimization

     Final energy             =     -19.2601956694 Ry
Begin final coordinates

ATOMIC_POSITIONS (crystal)
Si            0.0000000000        0.0000000000        0.0000000000
Si            0.2500000000        0.2500000000        0.2500000000
End final coordinates



     Writing all to output data dir ./Si_elastic_isotropic.save/
 
     init_run     :      1.65s CPU      1.72s WALL (       1 calls)
     electrons    :     12.85s CPU     14.52s WALL (       1 calls)
     forces       :      0.32s CPU      0.35s WALL (       1 calls)
     stress       :      2.10s CPU      2.13s WALL (       1 calls)

     Called by init_run:
     wfcinit      :      0.63s CPU      0.65s WALL (       1 calls)
     potinit      :      0.03s CPU      0.04s WALL (       1 calls)
     hinit0       :      0.83s CPU      0.84s WALL (       1 calls)

     Called by electrons:
     c_bands      :      9.68s CPU     11.11s WALL (       7 calls)
     sum_band     :      2.29s CPU      2.43s WALL (       7 calls)
     v_of_rho     :      0.10s CPU      0.11s WALL (       7 calls)
     newd         :      0.85s CPU      0.93s WALL (       7 calls)
     mix_rho      :      0.02s CPU      0.03s WALL (       7 calls)

     Called by c_bands:
     init_us_2    :      0.75s CPU      0.83s WALL (    1003 calls)
     init_us_2:cp :      0.73s CPU      0.81s WALL (    1003 calls)
     ccgdiagg     :      7.75s CPU      8.46s WALL (     413 calls)
     wfcrot       :      1.98s CPU      2.08s WALL (     354 calls)

     Called by *cgdiagg:
     h_psi        :      7.76s CPU      8.33s WALL (    5331 calls)
     s_psi        :      0.68s CPU      0.78s WALL (   10308 calls)

     Called by h_psi:
     h_psi:calbec :      0.69s CPU      0.73s WALL (    5331 calls)
     vloc_psi     :      6.34s CPU      6.81s WALL (    5331 calls)
     add_vuspsi   :      0.44s CPU      0.49s WALL (    5331 calls)
     hs_1psi      :      6.59s CPU      7.15s WALL (    4977 calls)
     s_1psi       :      0.82s CPU      0.91s WALL (    4977 calls)

     General routines
     calbec       :      1.01s CPU      1.13s WALL (   11016 calls)
     fft          :      0.06s CPU      0.07s WALL (      49 calls)
     ffts         :      0.01s CPU      0.01s WALL (      14 calls)
     fftw         :      5.60s CPU      5.98s WALL (   14910 calls)
     interpolate  :      0.02s CPU      0.02s WALL (       7 calls)
 
     Parallel routines
 
     PWSCF        :     17.46s CPU     19.80s WALL

 
   This run was terminated on:   0:37: 6  15Mar2022            

=------------------------------------------------------------------------------=
   JOB DONE.
=------------------------------------------------------------------------------=
