
     Program PWSCF v.7.0 starts on 17Feb2022 at 17:21:57 

     This program is part of the open-source Quantum ESPRESSO suite
     for quantum simulation of materials; please cite
         "P. Giannozzi et al., J. Phys.:Condens. Matter 21 395502 (2009);
         "P. Giannozzi et al., J. Phys.:Condens. Matter 29 465901 (2017);
         "P. Giannozzi et al., J. Chem. Phys. 152 154105 (2020);
          URL http://www.quantum-espresso.org", 
     in publications or presentations arising from this work. More details at
     http://www.quantum-espresso.org/quote

     Parallel version (MPI), running on     1 processors

     MPI processes distributed on     1 nodes
     91058 MiB available memory on the printing compute node when the environment starts
 
     Waiting for input...
     Reading input from standard input
Warning: card &CELL ignored
Warning: card  CELL_DYNAMICS = 'BFGS', ignored
Warning: card  PRESS=0.1D0, ignored
Warning: card / ignored

     Current dimensions of program PWSCF are:
     Max number of different atomic species (ntypx) = 10
     Max number of k-points (npk) =  40000
     Max angular momentum in pseudopotentials (lmaxx) =  4

     Subspace diagonalization in iterative solution of the eigenvalue problem:
     a serial algorithm will be used

 
     G-vector sticks info
     --------------------
     sticks:   dense  smooth     PW     G-vecs:    dense   smooth      PW
     Sum         673     223     85                11575     2229     459
 
     Using Slab Decomposition
 


     bravais-lattice index     =            2
     lattice parameter (alat)  =       9.0000  a.u.
     unit-cell volume          =     182.2500 (a.u.)^3
     number of atoms/cell      =            2
     number of atomic types    =            2
     number of electrons       =         8.00
     number of Kohn-Sham states=            4
     kinetic-energy cutoff     =      20.0000  Ry
     charge density cutoff     =     240.0000  Ry
     scf convergence threshold =      1.0E-08
     mixing beta               =       0.7000
     number of iterations used =            8  plain     mixing
     Exchange-correlation= SLA  PZ   NOGX NOGC
                           (   1   1   0   0   0   0   0)

     celldm(1)=   9.000000  celldm(2)=   0.000000  celldm(3)=   0.000000
     celldm(4)=   0.000000  celldm(5)=   0.000000  celldm(6)=   0.000000

     crystal axes: (cart. coord. in units of alat)
               a(1) = (  -0.500000   0.000000   0.500000 )  
               a(2) = (   0.000000   0.500000   0.500000 )  
               a(3) = (  -0.500000   0.500000   0.000000 )  

     reciprocal axes: (cart. coord. in units 2 pi/alat)
               b(1) = ( -1.000000 -1.000000  1.000000 )  
               b(2) = (  1.000000  1.000000  1.000000 )  
               b(3) = ( -1.000000  1.000000 -1.000000 )  


     PseudoPot. # 1 for B  read from file:
     ./pseudo_dir/B_LDA.UPF
     MD5 check sum: a9970de764dbc07c3a3d9583c605c3b2
     Pseudo is Ultrasoft + core correction, Zval =  3.0
     Generated by new atomic code, or converted to UPF format
     Using radial grid of  781 points,  4 beta functions with: 
                l(1) =   0
                l(2) =   0
                l(3) =   1
                l(4) =   1
     Q(r) pseudized with  8 coefficients,  rinner =    1.100   1.100   1.100


     PseudoPot. # 2 for As read from file:
     ./pseudo_dir/As_LDA.UPF
     MD5 check sum: 6d2e8cbe4ed9d0db7c6ef7a361cc050d
     Pseudo is Ultrasoft + core correction, Zval =  5.0
     Generated by new atomic code, or converted to UPF format
     Using radial grid of  875 points,  6 beta functions with: 
                l(1) =   0
                l(2) =   0
                l(3) =   1
                l(4) =   1
                l(5) =   2
                l(6) =   2
     Q(r) pseudized with  8 coefficients,  rinner =    1.300   1.300   1.300
                                                       1.300   1.300

     atomic species   valence    mass     pseudopotential
        B              3.00    10.81100     B ( 1.00)
        As             5.00    74.92160     As( 1.00)

      2 Sym. Ops. (no inversion) found



   Cartesian axes

     site n.     atom                  positions (alat units)
         1           B   tau(   1) = (   0.0000000   0.0000000   0.0000000  )
         2           As  tau(   2) = (  -0.2750000   0.2750000   0.2500000  )

     number of k points=    68
                       cart. coord. in units 2pi/alat
        k(    1) = (   0.0000000   0.0000000   0.0000000), wk =   0.0092593
        k(    2) = (  -0.1666667   0.1666667  -0.1666667), wk =   0.0185185
        k(    3) = (  -0.3333333   0.3333333  -0.3333333), wk =   0.0185185
        k(    4) = (   0.5000000  -0.5000000   0.5000000), wk =   0.0092593
        k(    5) = (   0.0000000   0.3333333   0.0000000), wk =   0.0370370
        k(    6) = (  -0.1666667   0.5000000  -0.1666667), wk =   0.0370370
        k(    7) = (   0.6666667  -0.3333333   0.6666667), wk =   0.0370370
        k(    8) = (   0.5000000  -0.1666667   0.5000000), wk =   0.0370370
        k(    9) = (   0.3333333  -0.0000000   0.3333333), wk =   0.0370370
        k(   10) = (   0.0000000   0.6666667   0.0000000), wk =   0.0370370
        k(   11) = (   0.8333333  -0.1666667   0.8333333), wk =   0.0370370
        k(   12) = (   0.6666667  -0.0000000   0.6666667), wk =   0.0370370
        k(   13) = (   0.0000000  -1.0000000   0.0000000), wk =   0.0185185
        k(   14) = (   0.6666667  -0.3333333   1.0000000), wk =   0.0370370
        k(   15) = (   0.5000000  -0.1666667   0.8333333), wk =   0.0370370
        k(   16) = (  -0.3333333  -1.0000000   0.0000000), wk =   0.0370370
        k(   17) = (   0.1666667   0.1666667   0.1666667), wk =   0.0370370
        k(   18) = (  -0.1666667   0.1666667   0.1666667), wk =   0.0185185
        k(   19) = (   0.3333333   0.3333333   0.3333333), wk =   0.0370370
        k(   20) = (  -0.3333333   0.3333333   0.3333333), wk =   0.0185185
        k(   21) = (  -0.5000000  -0.5000000  -0.5000000), wk =   0.0185185
        k(   22) = (   0.5000000  -0.5000000  -0.5000000), wk =   0.0092593
        k(   23) = (   0.0000000   0.0000000   0.3333333), wk =   0.0185185
        k(   24) = (   0.1666667   0.5000000   0.1666667), wk =   0.0370370
        k(   25) = (  -0.1666667  -0.5000000   0.1666667), wk =   0.0370370
        k(   26) = (  -0.5000000   0.1666667   0.1666667), wk =   0.0370370
        k(   27) = (   0.1666667  -0.1666667   0.5000000), wk =   0.0185185
        k(   28) = (   0.1666667   0.1666667  -0.5000000), wk =   0.0370370
        k(   29) = (  -0.1666667   0.1666667   0.5000000), wk =   0.0185185
        k(   30) = (  -0.6666667  -0.3333333  -0.6666667), wk =   0.0370370
        k(   31) = (   0.6666667   0.3333333  -0.6666667), wk =   0.0370370
        k(   32) = (   0.3333333  -0.6666667  -0.6666667), wk =   0.0370370
        k(   33) = (  -0.6666667   0.6666667  -0.3333333), wk =   0.0185185
        k(   34) = (  -0.6666667  -0.6666667   0.3333333), wk =   0.0370370
        k(   35) = (   0.6666667  -0.6666667  -0.3333333), wk =   0.0185185
        k(   36) = (  -0.5000000  -0.1666667  -0.5000000), wk =   0.0370370
        k(   37) = (   0.5000000   0.1666667  -0.5000000), wk =   0.0370370
        k(   38) = (   0.1666667  -0.5000000  -0.5000000), wk =   0.0370370
        k(   39) = (  -0.5000000   0.5000000  -0.1666667), wk =   0.0185185
        k(   40) = (  -0.5000000  -0.5000000   0.1666667), wk =   0.0370370
        k(   41) = (   0.5000000  -0.5000000  -0.1666667), wk =   0.0185185
        k(   42) = (   0.3333333   0.0000000  -0.3333333), wk =   0.0370370
        k(   43) = (  -0.3333333   0.3333333  -0.0000000), wk =   0.0185185
        k(   44) = (  -0.3333333  -0.3333333   0.0000000), wk =   0.0185185
        k(   45) = (   0.0000000   0.0000000   0.6666667), wk =   0.0185185
        k(   46) = (  -0.8333333  -0.1666667  -0.8333333), wk =   0.0370370
        k(   47) = (   0.8333333   0.1666667  -0.8333333), wk =   0.0370370
        k(   48) = (   0.1666667  -0.8333333  -0.8333333), wk =   0.0370370
        k(   49) = (  -0.8333333   0.8333333  -0.1666667), wk =   0.0185185
        k(   50) = (  -0.8333333  -0.8333333   0.1666667), wk =   0.0370370
        k(   51) = (   0.8333333  -0.8333333  -0.1666667), wk =   0.0185185
        k(   52) = (   0.6666667   0.0000000  -0.6666667), wk =   0.0370370
        k(   53) = (  -0.6666667   0.6666667   0.0000000), wk =   0.0185185
        k(   54) = (  -0.6666667  -0.6666667   0.0000000), wk =   0.0185185
        k(   55) = (   0.0000000   0.0000000  -1.0000000), wk =   0.0092593
        k(   56) = (  -0.6666667  -0.3333333  -1.0000000), wk =   0.0370370
        k(   57) = (   1.0000000   0.3333333   0.6666667), wk =   0.0370370
        k(   58) = (  -1.0000000   0.3333333  -0.6666667), wk =   0.0370370
        k(   59) = (  -0.6666667   1.0000000  -0.3333333), wk =   0.0370370
        k(   60) = (  -0.6666667  -1.0000000   0.3333333), wk =   0.0370370
        k(   61) = (  -0.5000000  -0.1666667  -0.8333333), wk =   0.0370370
        k(   62) = (   0.5000000   0.1666667  -0.8333333), wk =   0.0370370
        k(   63) = (   0.1666667  -0.5000000  -0.8333333), wk =   0.0370370
        k(   64) = (   0.8333333   0.1666667   0.5000000), wk =   0.0370370
        k(   65) = (  -0.8333333   0.1666667  -0.5000000), wk =   0.0185185
        k(   66) = (   0.8333333  -0.1666667  -0.5000000), wk =   0.0185185
        k(   67) = (   0.0000000   1.0000000  -0.3333333), wk =   0.0370370
        k(   68) = (   0.3333333   0.0000000  -1.0000000), wk =   0.0370370

     Dense  grid:    11575 G-vectors     FFT dimensions: (  32,  32,  32)

     Smooth grid:     2229 G-vectors     FFT dimensions: (  20,  20,  20)

     Estimated max dynamical RAM per process >      46.60 MB

     Initial potential from superposition of free atoms

     starting charge       7.9996, renormalised to       8.0000
     Starting wfcs are    8 randomized atomic wfcs

     total cpu time spent up to now is        4.0 secs

     Self-consistent Calculation

     iteration #  1     ecut=    20.00 Ry     beta= 0.70
     CG style diagonalization
     ethr =  1.00E-02,  avg # of iterations =  2.6

     total cpu time spent up to now is        5.1 secs

     total energy              =     -46.11405130 Ry
     estimated scf accuracy    <       0.13425128 Ry

     iteration #  2     ecut=    20.00 Ry     beta= 0.70
     CG style diagonalization
     ethr =  1.68E-03,  avg # of iterations =  4.2

     total cpu time spent up to now is        6.6 secs

     total energy              =     -46.14265230 Ry
     estimated scf accuracy    <       0.03547030 Ry

     iteration #  3     ecut=    20.00 Ry     beta= 0.70
     CG style diagonalization
     ethr =  4.43E-04,  avg # of iterations =  4.0

     total cpu time spent up to now is        8.1 secs

     total energy              =     -46.15039636 Ry
     estimated scf accuracy    <       0.00057122 Ry

     iteration #  4     ecut=    20.00 Ry     beta= 0.70
     CG style diagonalization
     ethr =  7.14E-06,  avg # of iterations =  3.8

     total cpu time spent up to now is        9.5 secs

     total energy              =     -46.15052143 Ry
     estimated scf accuracy    <       0.00001342 Ry

     iteration #  5     ecut=    20.00 Ry     beta= 0.70
     CG style diagonalization
     ethr =  1.68E-07,  avg # of iterations =  4.2

     total cpu time spent up to now is       11.1 secs

     total energy              =     -46.15052578 Ry
     estimated scf accuracy    <       0.00000143 Ry

     iteration #  6     ecut=    20.00 Ry     beta= 0.70
     CG style diagonalization
     ethr =  1.78E-08,  avg # of iterations =  4.1

     total cpu time spent up to now is       12.6 secs

     End of self-consistent calculation

          k = 0.0000 0.0000 0.0000 (   283 PWs)   bands (ev):

    -7.0114   7.3581   8.5871   9.7431

          k =-0.1667 0.1667-0.1667 (   277 PWs)   bands (ev):

    -6.5460   4.9252   7.7313   8.5562

          k =-0.3333 0.3333-0.3333 (   281 PWs)   bands (ev):

    -5.2402   1.2894   6.7484   7.5426

          k = 0.5000-0.5000 0.5000 (   272 PWs)   bands (ev):

    -3.9642  -0.8351   6.4036   7.2112

          k = 0.0000 0.3333 0.0000 (   283 PWs)   bands (ev):

    -6.4041   5.7585   6.6601   7.3303

          k =-0.1667 0.5000-0.1667 (   286 PWs)   bands (ev):

    -5.3721   2.5761   5.8271   6.3960

          k = 0.6667-0.3333 0.6667 (   277 PWs)   bands (ev):

    -3.8458  -0.2093   4.8056   6.2439

          k = 0.5000-0.1667 0.5000 (   273 PWs)   bands (ev):

    -4.3243   0.5127   4.4505   6.9917

          k = 0.3333-0.0000 0.3333 (   279 PWs)   bands (ev):

    -5.8039   3.4188   5.2298   8.3217

          k = 0.0000 0.6667 0.0000 (   274 PWs)   bands (ev):

    -4.6769   2.5124   4.7862   5.3318

          k = 0.8333-0.1667 0.8333 (   272 PWs)   bands (ev):

    -3.3622   0.5896   3.3649   5.1007

          k = 0.6667-0.0000 0.6667 (   268 PWs)   bands (ev):

    -3.1223   0.3652   2.2556   5.7958

          k = 0.0000-1.0000 0.0000 (   286 PWs)   bands (ev):

    -2.8952   0.0327   4.1569   4.6578

          k = 0.6667-0.3333 1.0000 (   274 PWs)   bands (ev):

    -4.2203   1.6683   3.6505   5.2781

          k = 0.5000-0.1667 0.8333 (   274 PWs)   bands (ev):

    -3.0933  -0.0027   3.3205   4.6893

          k =-0.3333-1.0000 0.0000 (   266 PWs)   bands (ev):

    -2.7679   0.3640   3.1190   3.7079

          k = 0.1667 0.1667 0.1667 (   277 PWs)   bands (ev):

    -6.5546   5.4099   7.1393   8.6966

          k =-0.1667 0.1667 0.1667 (   277 PWs)   bands (ev):

    -6.5635   5.9444   7.0650   8.0327

          k = 0.3333 0.3333 0.3333 (   281 PWs)   bands (ev):

    -5.2929   1.7038   6.2857   7.8108

          k =-0.3333 0.3333 0.3333 (   281 PWs)   bands (ev):

    -5.3442   2.1211   6.3411   7.3097

          k =-0.5000-0.5000-0.5000 (   272 PWs)   bands (ev):

    -4.1516  -0.3217   5.9831   7.5247

          k = 0.5000-0.5000-0.5000 (   272 PWs)   bands (ev):

    -4.3045   0.1597   6.0823   7.0534

          k = 0.0000 0.0000 0.3333 (   283 PWs)   bands (ev):

    -6.4040   5.5913   6.7997   7.4362

          k = 0.1667 0.5000 0.1667 (   286 PWs)   bands (ev):

    -5.4043   3.1692   5.1550   6.4504

          k =-0.1667-0.5000 0.1667 (   286 PWs)   bands (ev):

    -5.3868   2.8125   5.5135   6.5998

          k =-0.5000 0.1667 0.1667 (   286 PWs)   bands (ev):

    -5.4195   3.3566   5.4229   6.0389

          k = 0.1667-0.1667 0.5000 (   286 PWs)   bands (ev):

    -5.3629   2.4267   5.8661   6.6250

          k = 0.1667 0.1667-0.5000 (   286 PWs)   bands (ev):

    -5.3955   2.9133   5.4352   6.5476

          k =-0.1667 0.1667 0.5000 (   286 PWs)   bands (ev):

    -5.4278   3.5698   5.1162   6.0901

          k =-0.6667-0.3333-0.6667 (   277 PWs)   bands (ev):

    -3.9912   0.3252   4.3089   6.4180

          k = 0.6667 0.3333-0.6667 (   277 PWs)   bands (ev):

    -3.9819   0.2170   5.1148   5.6951

          k = 0.3333-0.6667-0.6667 (   277 PWs)   bands (ev):

    -4.1069   0.7342   4.6934   5.7167

          k =-0.6667 0.6667-0.3333 (   277 PWs)   bands (ev):

    -3.8387  -0.2624   5.3423   5.7479

          k =-0.6667-0.6667 0.3333 (   277 PWs)   bands (ev):

    -3.9855   0.2589   4.5706   6.2653

          k = 0.6667-0.6667-0.3333 (   277 PWs)   bands (ev):

    -4.1102   0.7911   4.2861   6.0778

          k =-0.5000-0.1667-0.5000 (   273 PWs)   bands (ev):

    -4.3911   0.8885   4.0798   7.1656

          k = 0.5000 0.1667-0.5000 (   273 PWs)   bands (ev):

    -4.4490   1.0731   4.7457   6.1147

          k = 0.1667-0.5000-0.5000 (   273 PWs)   bands (ev):

    -4.5087   1.4786   4.3296   6.2298

          k =-0.5000 0.5000-0.1667 (   273 PWs)   bands (ev):

    -4.3557   0.5982   4.8071   6.4377

          k =-0.5000-0.5000 0.1667 (   273 PWs)   bands (ev):

    -4.4207   1.0025   4.2434   6.8472

          k = 0.5000-0.5000-0.1667 (   273 PWs)   bands (ev):

    -4.4814   1.3796   4.0078   6.7333

          k = 0.3333 0.0000-0.3333 (   279 PWs)   bands (ev):

    -5.8418   4.3434   5.1261   7.0822

          k =-0.3333 0.3333-0.0000 (   279 PWs)   bands (ev):

    -5.8232   3.7701   5.2764   7.6555

          k =-0.3333-0.3333 0.0000 (   279 PWs)   bands (ev):

    -5.8226   3.9860   4.9010   7.9336

          k = 0.0000 0.0000 0.6667 (   274 PWs)   bands (ev):

    -4.6752   2.3916   5.0237   5.2778

          k =-0.8333-0.1667-0.8333 (   272 PWs)   bands (ev):

    -3.4310   0.9784   2.9875   5.1368

          k = 0.8333 0.1667-0.8333 (   272 PWs)   bands (ev):

    -3.4150   0.7092   3.8734   4.5624

          k = 0.1667-0.8333-0.8333 (   272 PWs)   bands (ev):

    -3.4781   1.0400   3.5412   4.5882

          k =-0.8333 0.8333-0.1667 (   272 PWs)   bands (ev):

    -3.3458   0.4116   3.8908   4.7849

          k =-0.8333-0.8333 0.1667 (   272 PWs)   bands (ev):

    -3.4160   0.7504   3.4089   5.0254

          k = 0.8333-0.8333-0.1667 (   272 PWs)   bands (ev):

    -3.4793   1.0892   3.2138   4.8549

          k = 0.6667 0.0000-0.6667 (   268 PWs)   bands (ev):

    -3.3182   0.9631   2.4762   5.1320

          k =-0.6667 0.6667 0.0000 (   268 PWs)   bands (ev):

    -3.2200   0.5766   2.4599   5.4428

          k =-0.6667-0.6667 0.0000 (   268 PWs)   bands (ev):

    -3.2230   0.6849   2.2522   5.6371

          k = 0.0000 0.0000-1.0000 (   286 PWs)   bands (ev):

    -2.8753  -0.0663   4.3877   4.5675

          k =-0.6667-0.3333-1.0000 (   274 PWs)   bands (ev):

    -4.2212   1.7753   3.3886   5.4782

          k = 1.0000 0.3333 0.6667 (   274 PWs)   bands (ev):

    -4.2701   2.1737   3.4962   4.9060

          k =-1.0000 0.3333-0.6667 (   274 PWs)   bands (ev):

    -4.1698   1.3615   3.5722   5.6984

          k =-0.6667 1.0000-0.3333 (   274 PWs)   bands (ev):

    -4.1680   1.3117   3.6115   5.7417

          k =-0.6667-1.0000 0.3333 (   274 PWs)   bands (ev):

    -4.2686   2.0721   3.6070   4.9220

          k =-0.5000-0.1667-0.8333 (   274 PWs)   bands (ev):

    -3.1918   0.4653   2.6257   5.0840

          k = 0.5000 0.1667-0.8333 (   274 PWs)   bands (ev):

    -3.2481   0.4759   3.4002   4.2828

          k = 0.1667-0.5000-0.8333 (   274 PWs)   bands (ev):

    -3.3273   0.9442   2.7215   4.5785

          k = 0.8333 0.1667 0.5000 (   274 PWs)   bands (ev):

    -3.2235   0.4910   2.9586   4.6873

          k =-0.8333 0.1667-0.5000 (   274 PWs)   bands (ev):

    -3.0659   0.0080   2.9429   5.0575

          k = 0.8333-0.1667-0.5000 (   274 PWs)   bands (ev):

    -3.3554   0.9731   3.1652   4.0952

          k = 0.0000 1.0000-0.3333 (   266 PWs)   bands (ev):

    -2.7717   0.3945   3.0733   3.7180

          k = 0.3333 0.0000-1.0000 (   266 PWs)   bands (ev):

    -2.7569   0.2901   3.2827   3.6254

     highest occupied level (ev):     9.7431

!    total energy              =     -46.15052608 Ry
     estimated scf accuracy    <          6.6E-09 Ry

     The total energy is the sum of the following terms:
     one-electron contribution =       6.71603132 Ry
     hartree contribution      =       1.23836897 Ry
     xc contribution           =     -34.14624917 Ry
     ewald contribution        =     -19.95867720 Ry

     convergence has been achieved in   6 iterations

     Forces acting on atoms (cartesian axes, Ry/au):

     atom    1 type  1   force =    -0.07902998    0.07902998   -0.02774659
     atom    2 type  2   force =     0.07902998   -0.07902998    0.02774659

     Total force =     0.162858     Total SCF correction =     0.000035


     Computing stress (Cartesian axis) and pressure

          total   stress  (Ry/bohr**3)                   (kbar)     P=      -46.68
  -0.00034837  -0.00016309   0.00038344          -51.25      -23.99       56.41
  -0.00016309  -0.00034837  -0.00038344          -23.99      -51.25      -56.41
   0.00038344  -0.00038344  -0.00025520           56.41      -56.41      -37.54


     Writing all to output data dir ./z-20.save/
 
     init_run     :      1.69s CPU      2.00s WALL (       1 calls)
     electrons    :      7.72s CPU      8.63s WALL (       1 calls)
     forces       :      0.15s CPU      0.16s WALL (       1 calls)
     stress       :      1.15s CPU      1.21s WALL (       1 calls)

     Called by init_run:
     wfcinit      :      0.51s CPU      0.60s WALL (       1 calls)
     potinit      :      0.01s CPU      0.04s WALL (       1 calls)
     hinit0       :      1.09s CPU      1.20s WALL (       1 calls)

     Called by electrons:
     c_bands      :      5.98s CPU      6.68s WALL (       6 calls)
     sum_band     :      1.29s CPU      1.39s WALL (       6 calls)
     v_of_rho     :      0.06s CPU      0.06s WALL (       7 calls)
     newd         :      0.43s CPU      0.49s WALL (       7 calls)
     mix_rho      :      0.01s CPU      0.02s WALL (       6 calls)

     Called by c_bands:
     init_us_2    :      0.37s CPU      0.43s WALL (    1020 calls)
     init_us_2:cp :      0.36s CPU      0.41s WALL (    1020 calls)
     ccgdiagg     :      4.58s CPU      5.13s WALL (     408 calls)
     wfcrot       :      1.61s CPU      1.75s WALL (     408 calls)

     Called by *cgdiagg:
     h_psi        :      5.07s CPU      5.59s WALL (    5295 calls)
     s_psi        :      0.27s CPU      0.31s WALL (   10182 calls)

     Called by h_psi:
     h_psi:calbec :      0.22s CPU      0.27s WALL (    5295 calls)
     vloc_psi     :      4.47s CPU      4.88s WALL (    5295 calls)
     add_vuspsi   :      0.16s CPU      0.18s WALL (    5295 calls)
     hs_1psi      :      4.01s CPU      4.47s WALL (    4887 calls)
     s_1psi       :      0.39s CPU      0.44s WALL (    4887 calls)

     General routines
     calbec       :      0.30s CPU      0.36s WALL (   10930 calls)
     fft          :      0.03s CPU      0.05s WALL (      48 calls)
     ffts         :      0.01s CPU      0.01s WALL (      13 calls)
     fftw         :      4.57s CPU      4.98s WALL (   15214 calls)
     interpolate  :      0.01s CPU      0.02s WALL (       7 calls)
 
     Parallel routines
 
     PWSCF        :     11.57s CPU     14.93s WALL

 
   This run was terminated on:  17:22:11  17Feb2022            

=------------------------------------------------------------------------------=
   JOB DONE.
=------------------------------------------------------------------------------=
