
     Program PWSCF v.7.0 starts on 17Feb2022 at 17:24:47 

     This program is part of the open-source Quantum ESPRESSO suite
     for quantum simulation of materials; please cite
         "P. Giannozzi et al., J. Phys.:Condens. Matter 21 395502 (2009);
         "P. Giannozzi et al., J. Phys.:Condens. Matter 29 465901 (2017);
         "P. Giannozzi et al., J. Chem. Phys. 152 154105 (2020);
          URL http://www.quantum-espresso.org", 
     in publications or presentations arising from this work. More details at
     http://www.quantum-espresso.org/quote

     Parallel version (MPI), running on     1 processors

     MPI processes distributed on     1 nodes
     91068 MiB available memory on the printing compute node when the environment starts
 
     Waiting for input...
     Reading input from standard input
Warning: card &CELL ignored
Warning: card  CELL_DYNAMICS = 'BFGS', ignored
Warning: card  PRESS=0.1D0, ignored
Warning: card / ignored

     Current dimensions of program PWSCF are:
     Max number of different atomic species (ntypx) = 10
     Max number of k-points (npk) =  40000
     Max angular momentum in pseudopotentials (lmaxx) =  4

     Subspace diagonalization in iterative solution of the eigenvalue problem:
     a serial algorithm will be used

 
     G-vector sticks info
     --------------------
     sticks:   dense  smooth     PW     G-vecs:    dense   smooth      PW
     Sum        1663     559    169                45143     8657    1471
 
     Using Slab Decomposition
 


     bravais-lattice index     =            2
     lattice parameter (alat)  =       9.0000  a.u.
     unit-cell volume          =     182.2500 (a.u.)^3
     number of atoms/cell      =            2
     number of atomic types    =            2
     number of electrons       =         8.00
     number of Kohn-Sham states=            4
     kinetic-energy cutoff     =      50.0000  Ry
     charge density cutoff     =     600.0000  Ry
     scf convergence threshold =      1.0E-08
     mixing beta               =       0.7000
     number of iterations used =            8  plain     mixing
     Exchange-correlation= SLA  PZ   NOGX NOGC
                           (   1   1   0   0   0   0   0)

     celldm(1)=   9.000000  celldm(2)=   0.000000  celldm(3)=   0.000000
     celldm(4)=   0.000000  celldm(5)=   0.000000  celldm(6)=   0.000000

     crystal axes: (cart. coord. in units of alat)
               a(1) = (  -0.500000   0.000000   0.500000 )  
               a(2) = (   0.000000   0.500000   0.500000 )  
               a(3) = (  -0.500000   0.500000   0.000000 )  

     reciprocal axes: (cart. coord. in units 2 pi/alat)
               b(1) = ( -1.000000 -1.000000  1.000000 )  
               b(2) = (  1.000000  1.000000  1.000000 )  
               b(3) = ( -1.000000  1.000000 -1.000000 )  


     PseudoPot. # 1 for B  read from file:
     ./pseudo_dir/B_LDA.UPF
     MD5 check sum: a9970de764dbc07c3a3d9583c605c3b2
     Pseudo is Ultrasoft + core correction, Zval =  3.0
     Generated by new atomic code, or converted to UPF format
     Using radial grid of  781 points,  4 beta functions with: 
                l(1) =   0
                l(2) =   0
                l(3) =   1
                l(4) =   1
     Q(r) pseudized with  8 coefficients,  rinner =    1.100   1.100   1.100


     PseudoPot. # 2 for As read from file:
     ./pseudo_dir/As_LDA.UPF
     MD5 check sum: 6d2e8cbe4ed9d0db7c6ef7a361cc050d
     Pseudo is Ultrasoft + core correction, Zval =  5.0
     Generated by new atomic code, or converted to UPF format
     Using radial grid of  875 points,  6 beta functions with: 
                l(1) =   0
                l(2) =   0
                l(3) =   1
                l(4) =   1
                l(5) =   2
                l(6) =   2
     Q(r) pseudized with  8 coefficients,  rinner =    1.300   1.300   1.300
                                                       1.300   1.300

     atomic species   valence    mass     pseudopotential
        B              3.00    10.81100     B ( 1.00)
        As             5.00    74.92160     As( 1.00)

      2 Sym. Ops. (no inversion) found



   Cartesian axes

     site n.     atom                  positions (alat units)
         1           B   tau(   1) = (   0.0000000   0.0000000   0.0000000  )
         2           As  tau(   2) = (  -0.2750000   0.2750000   0.2500000  )

     number of k points=    68
                       cart. coord. in units 2pi/alat
        k(    1) = (   0.0000000   0.0000000   0.0000000), wk =   0.0092593
        k(    2) = (  -0.1666667   0.1666667  -0.1666667), wk =   0.0185185
        k(    3) = (  -0.3333333   0.3333333  -0.3333333), wk =   0.0185185
        k(    4) = (   0.5000000  -0.5000000   0.5000000), wk =   0.0092593
        k(    5) = (   0.0000000   0.3333333   0.0000000), wk =   0.0370370
        k(    6) = (  -0.1666667   0.5000000  -0.1666667), wk =   0.0370370
        k(    7) = (   0.6666667  -0.3333333   0.6666667), wk =   0.0370370
        k(    8) = (   0.5000000  -0.1666667   0.5000000), wk =   0.0370370
        k(    9) = (   0.3333333  -0.0000000   0.3333333), wk =   0.0370370
        k(   10) = (   0.0000000   0.6666667   0.0000000), wk =   0.0370370
        k(   11) = (   0.8333333  -0.1666667   0.8333333), wk =   0.0370370
        k(   12) = (   0.6666667  -0.0000000   0.6666667), wk =   0.0370370
        k(   13) = (   0.0000000  -1.0000000   0.0000000), wk =   0.0185185
        k(   14) = (   0.6666667  -0.3333333   1.0000000), wk =   0.0370370
        k(   15) = (   0.5000000  -0.1666667   0.8333333), wk =   0.0370370
        k(   16) = (  -0.3333333  -1.0000000   0.0000000), wk =   0.0370370
        k(   17) = (   0.1666667   0.1666667   0.1666667), wk =   0.0370370
        k(   18) = (  -0.1666667   0.1666667   0.1666667), wk =   0.0185185
        k(   19) = (   0.3333333   0.3333333   0.3333333), wk =   0.0370370
        k(   20) = (  -0.3333333   0.3333333   0.3333333), wk =   0.0185185
        k(   21) = (  -0.5000000  -0.5000000  -0.5000000), wk =   0.0185185
        k(   22) = (   0.5000000  -0.5000000  -0.5000000), wk =   0.0092593
        k(   23) = (   0.0000000   0.0000000   0.3333333), wk =   0.0185185
        k(   24) = (   0.1666667   0.5000000   0.1666667), wk =   0.0370370
        k(   25) = (  -0.1666667  -0.5000000   0.1666667), wk =   0.0370370
        k(   26) = (  -0.5000000   0.1666667   0.1666667), wk =   0.0370370
        k(   27) = (   0.1666667  -0.1666667   0.5000000), wk =   0.0185185
        k(   28) = (   0.1666667   0.1666667  -0.5000000), wk =   0.0370370
        k(   29) = (  -0.1666667   0.1666667   0.5000000), wk =   0.0185185
        k(   30) = (  -0.6666667  -0.3333333  -0.6666667), wk =   0.0370370
        k(   31) = (   0.6666667   0.3333333  -0.6666667), wk =   0.0370370
        k(   32) = (   0.3333333  -0.6666667  -0.6666667), wk =   0.0370370
        k(   33) = (  -0.6666667   0.6666667  -0.3333333), wk =   0.0185185
        k(   34) = (  -0.6666667  -0.6666667   0.3333333), wk =   0.0370370
        k(   35) = (   0.6666667  -0.6666667  -0.3333333), wk =   0.0185185
        k(   36) = (  -0.5000000  -0.1666667  -0.5000000), wk =   0.0370370
        k(   37) = (   0.5000000   0.1666667  -0.5000000), wk =   0.0370370
        k(   38) = (   0.1666667  -0.5000000  -0.5000000), wk =   0.0370370
        k(   39) = (  -0.5000000   0.5000000  -0.1666667), wk =   0.0185185
        k(   40) = (  -0.5000000  -0.5000000   0.1666667), wk =   0.0370370
        k(   41) = (   0.5000000  -0.5000000  -0.1666667), wk =   0.0185185
        k(   42) = (   0.3333333   0.0000000  -0.3333333), wk =   0.0370370
        k(   43) = (  -0.3333333   0.3333333  -0.0000000), wk =   0.0185185
        k(   44) = (  -0.3333333  -0.3333333   0.0000000), wk =   0.0185185
        k(   45) = (   0.0000000   0.0000000   0.6666667), wk =   0.0185185
        k(   46) = (  -0.8333333  -0.1666667  -0.8333333), wk =   0.0370370
        k(   47) = (   0.8333333   0.1666667  -0.8333333), wk =   0.0370370
        k(   48) = (   0.1666667  -0.8333333  -0.8333333), wk =   0.0370370
        k(   49) = (  -0.8333333   0.8333333  -0.1666667), wk =   0.0185185
        k(   50) = (  -0.8333333  -0.8333333   0.1666667), wk =   0.0370370
        k(   51) = (   0.8333333  -0.8333333  -0.1666667), wk =   0.0185185
        k(   52) = (   0.6666667   0.0000000  -0.6666667), wk =   0.0370370
        k(   53) = (  -0.6666667   0.6666667   0.0000000), wk =   0.0185185
        k(   54) = (  -0.6666667  -0.6666667   0.0000000), wk =   0.0185185
        k(   55) = (   0.0000000   0.0000000  -1.0000000), wk =   0.0092593
        k(   56) = (  -0.6666667  -0.3333333  -1.0000000), wk =   0.0370370
        k(   57) = (   1.0000000   0.3333333   0.6666667), wk =   0.0370370
        k(   58) = (  -1.0000000   0.3333333  -0.6666667), wk =   0.0370370
        k(   59) = (  -0.6666667   1.0000000  -0.3333333), wk =   0.0370370
        k(   60) = (  -0.6666667  -1.0000000   0.3333333), wk =   0.0370370
        k(   61) = (  -0.5000000  -0.1666667  -0.8333333), wk =   0.0370370
        k(   62) = (   0.5000000   0.1666667  -0.8333333), wk =   0.0370370
        k(   63) = (   0.1666667  -0.5000000  -0.8333333), wk =   0.0370370
        k(   64) = (   0.8333333   0.1666667   0.5000000), wk =   0.0370370
        k(   65) = (  -0.8333333   0.1666667  -0.5000000), wk =   0.0185185
        k(   66) = (   0.8333333  -0.1666667  -0.5000000), wk =   0.0185185
        k(   67) = (   0.0000000   1.0000000  -0.3333333), wk =   0.0370370
        k(   68) = (   0.3333333   0.0000000  -1.0000000), wk =   0.0370370

     Dense  grid:    45143 G-vectors     FFT dimensions: (  50,  50,  50)

     Smooth grid:     8657 G-vectors     FFT dimensions: (  30,  30,  30)

     Estimated max dynamical RAM per process >     175.85 MB

     Initial potential from superposition of free atoms

     starting charge       7.9996, renormalised to       8.0000
     Starting wfcs are    8 randomized atomic wfcs

     total cpu time spent up to now is        4.8 secs

     Self-consistent Calculation

     iteration #  1     ecut=    50.00 Ry     beta= 0.70
     CG style diagonalization
     ethr =  1.00E-02,  avg # of iterations =  2.7

     total cpu time spent up to now is        7.7 secs

     total energy              =     -46.12958235 Ry
     estimated scf accuracy    <       0.15065189 Ry

     iteration #  2     ecut=    50.00 Ry     beta= 0.70
     CG style diagonalization
     ethr =  1.88E-03,  avg # of iterations =  4.2

     total cpu time spent up to now is       11.4 secs

     total energy              =     -46.16363782 Ry
     estimated scf accuracy    <       0.04297392 Ry

     iteration #  3     ecut=    50.00 Ry     beta= 0.70
     CG style diagonalization
     ethr =  5.37E-04,  avg # of iterations =  4.1

     total cpu time spent up to now is       15.1 secs

     total energy              =     -46.17304910 Ry
     estimated scf accuracy    <       0.00041435 Ry

     iteration #  4     ecut=    50.00 Ry     beta= 0.70
     CG style diagonalization
     ethr =  5.18E-06,  avg # of iterations =  4.8

     total cpu time spent up to now is       19.3 secs

     total energy              =     -46.17337909 Ry
     estimated scf accuracy    <       0.00009998 Ry

     iteration #  5     ecut=    50.00 Ry     beta= 0.70
     CG style diagonalization
     ethr =  1.25E-06,  avg # of iterations =  4.1

     total cpu time spent up to now is       23.1 secs

     total energy              =     -46.17340382 Ry
     estimated scf accuracy    <       0.00000252 Ry

     iteration #  6     ecut=    50.00 Ry     beta= 0.70
     CG style diagonalization
     ethr =  3.15E-08,  avg # of iterations =  5.8

     total cpu time spent up to now is       27.8 secs

     total energy              =     -46.17340695 Ry
     estimated scf accuracy    <       0.00000010 Ry

     iteration #  7     ecut=    50.00 Ry     beta= 0.70
     CG style diagonalization
     ethr =  1.20E-09,  avg # of iterations =  5.1

     total cpu time spent up to now is       32.1 secs

     total energy              =     -46.17340703 Ry
     estimated scf accuracy    <       0.00000001 Ry

     iteration #  8     ecut=    50.00 Ry     beta= 0.70
     CG style diagonalization
     ethr =  1.83E-10,  avg # of iterations =  4.4

     total cpu time spent up to now is       36.0 secs

     End of self-consistent calculation

          k = 0.0000 0.0000 0.0000 (  1067 PWs)   bands (ev):

    -7.0171   7.3331   8.5571   9.7036

          k =-0.1667 0.1667-0.1667 (  1080 PWs)   bands (ev):

    -6.5571   4.9043   7.6948   8.5149

          k =-0.3333 0.3333-0.3333 (  1089 PWs)   bands (ev):

    -5.2524   1.2792   6.7221   7.5118

          k = 0.5000-0.5000 0.5000 (  1068 PWs)   bands (ev):

    -3.9876  -0.8389   6.3739   7.1769

          k = 0.0000 0.3333 0.0000 (  1082 PWs)   bands (ev):

    -6.4127   5.7382   6.6343   7.3017

          k =-0.1667 0.5000-0.1667 (  1083 PWs)   bands (ev):

    -5.3828   2.5647   5.8066   6.3732

          k = 0.6667-0.3333 0.6667 (  1095 PWs)   bands (ev):

    -3.8669  -0.2133   4.7852   6.2162

          k = 0.5000-0.1667 0.5000 (  1095 PWs)   bands (ev):

    -4.3434   0.5040   4.4279   6.9588

          k = 0.3333-0.0000 0.3333 (  1077 PWs)   bands (ev):

    -5.8160   3.4036   5.2042   8.2805

          k = 0.0000 0.6667 0.0000 (  1078 PWs)   bands (ev):

    -4.6915   2.4958   4.7616   5.3051

          k = 0.8333-0.1667 0.8333 (  1086 PWs)   bands (ev):

    -3.3861   0.5853   3.3422   5.0724

          k = 0.6667-0.0000 0.6667 (  1113 PWs)   bands (ev):

    -3.1513   0.3650   2.2332   5.7607

          k = 0.0000-1.0000 0.0000 (  1106 PWs)   bands (ev):

    -2.9191   0.0368   4.1397   4.6385

          k = 0.6667-0.3333 1.0000 (  1080 PWs)   bands (ev):

    -4.2375   1.6572   3.6271   5.2530

          k = 0.5000-0.1667 0.8333 (  1090 PWs)   bands (ev):

    -3.1196  -0.0016   3.3001   4.6643

          k =-0.3333-1.0000 0.0000 (  1090 PWs)   bands (ev):

    -2.7976   0.3640   3.0936   3.6809

          k = 0.1667 0.1667 0.1667 (  1080 PWs)   bands (ev):

    -6.5649   5.3891   7.1020   8.6524

          k =-0.1667 0.1667 0.1667 (  1080 PWs)   bands (ev):

    -6.5728   5.9220   7.0270   7.9910

          k = 0.3333 0.3333 0.3333 (  1089 PWs)   bands (ev):

    -5.3045   1.6908   6.2591   7.7784

          k =-0.3333 0.3333 0.3333 (  1089 PWs)   bands (ev):

    -5.3544   2.1028   6.3135   7.2794

          k =-0.5000-0.5000-0.5000 (  1068 PWs)   bands (ev):

    -4.1692  -0.3321   5.9532   7.4890

          k = 0.5000-0.5000-0.5000 (  1068 PWs)   bands (ev):

    -4.3176   0.1429   6.0513   7.0196

          k = 0.0000 0.0000 0.3333 (  1082 PWs)   bands (ev):

    -6.4129   5.5719   6.7705   7.4086

          k = 0.1667 0.5000 0.1667 (  1083 PWs)   bands (ev):

    -5.4140   3.1550   5.1374   6.4267

          k =-0.1667-0.5000 0.1667 (  1083 PWs)   bands (ev):

    -5.3980   2.8005   5.4920   6.5764

          k =-0.5000 0.1667 0.1667 (  1083 PWs)   bands (ev):

    -5.4290   3.3400   5.4021   6.0185

          k = 0.1667-0.1667 0.5000 (  1083 PWs)   bands (ev):

    -5.3745   2.4168   5.8451   6.6006

          k = 0.1667 0.1667-0.5000 (  1083 PWs)   bands (ev):

    -5.4061   2.9007   5.4144   6.5250

          k =-0.1667 0.1667 0.5000 (  1083 PWs)   bands (ev):

    -5.4368   3.5522   5.0992   6.0665

          k =-0.6667-0.3333-0.6667 (  1095 PWs)   bands (ev):

    -4.0087   0.3157   4.2906   6.3889

          k = 0.6667 0.3333-0.6667 (  1095 PWs)   bands (ev):

    -3.9998   0.2089   5.0907   5.6700

          k = 0.3333-0.6667-0.6667 (  1095 PWs)   bands (ev):

    -4.1216   0.7198   4.6721   5.6899

          k =-0.6667 0.6667-0.3333 (  1095 PWs)   bands (ev):

    -3.8602  -0.2659   5.3181   5.7231

          k =-0.6667-0.6667 0.3333 (  1095 PWs)   bands (ev):

    -4.0033   0.2505   4.5502   6.2373

          k = 0.6667-0.6667-0.3333 (  1095 PWs)   bands (ev):

    -4.1246   0.7760   4.2672   6.0491

          k =-0.5000-0.1667-0.5000 (  1095 PWs)   bands (ev):

    -4.4094   0.8780   4.0583   7.1324

          k = 0.5000 0.1667-0.5000 (  1095 PWs)   bands (ev):

    -4.4640   1.0596   4.7209   6.0856

          k = 0.1667-0.5000-0.5000 (  1095 PWs)   bands (ev):

    -4.5220   1.4607   4.3074   6.2005

          k =-0.5000 0.5000-0.1667 (  1095 PWs)   bands (ev):

    -4.3727   0.5882   4.7821   6.4081

          k =-0.5000-0.5000 0.1667 (  1095 PWs)   bands (ev):

    -4.4373   0.9902   4.2221   6.8141

          k = 0.5000-0.5000-0.1667 (  1095 PWs)   bands (ev):

    -4.4964   1.3628   3.9872   6.7028

          k = 0.3333 0.0000-0.3333 (  1077 PWs)   bands (ev):

    -5.8515   4.3227   5.1068   7.0469

          k =-0.3333 0.3333-0.0000 (  1077 PWs)   bands (ev):

    -5.8339   3.7517   5.2539   7.6194

          k =-0.3333-0.3333 0.0000 (  1077 PWs)   bands (ev):

    -5.8337   3.9689   4.8795   7.8928

          k = 0.0000 0.0000 0.6667 (  1078 PWs)   bands (ev):

    -4.6906   2.3758   4.9983   5.2517

          k =-0.8333-0.1667-0.8333 (  1086 PWs)   bands (ev):

    -3.4525   0.9725   2.9647   5.1084

          k = 0.8333 0.1667-0.8333 (  1086 PWs)   bands (ev):

    -3.4379   0.7043   3.8481   4.5357

          k = 0.1667-0.8333-0.8333 (  1086 PWs)   bands (ev):

    -3.4992   1.0325   3.5180   4.5611

          k =-0.8333 0.8333-0.1667 (  1086 PWs)   bands (ev):

    -3.3711   0.4092   3.8654   4.7580

          k =-0.8333-0.8333 0.1667 (  1086 PWs)   bands (ev):

    -3.4392   0.7457   3.3862   4.9973

          k = 0.8333-0.8333-0.1667 (  1086 PWs)   bands (ev):

    -3.5002   1.0826   3.1902   4.8275

          k = 0.6667 0.0000-0.6667 (  1113 PWs)   bands (ev):

    -3.3414   0.9555   2.4534   5.0994

          k =-0.6667 0.6667 0.0000 (  1113 PWs)   bands (ev):

    -3.2458   0.5724   2.4366   5.4096

          k =-0.6667-0.6667 0.0000 (  1113 PWs)   bands (ev):

    -3.2499   0.6822   2.2308   5.6026

          k = 0.0000 0.0000-1.0000 (  1106 PWs)   bands (ev):

    -2.9015  -0.0596   4.3702   4.5483

          k =-0.6667-0.3333-1.0000 (  1080 PWs)   bands (ev):

    -4.2382   1.7650   3.3665   5.4506

          k = 1.0000 0.3333 0.6667 (  1080 PWs)   bands (ev):

    -4.2855   2.1602   3.4735   4.8813

          k =-1.0000 0.3333-0.6667 (  1080 PWs)   bands (ev):

    -4.1884   1.3529   3.5490   5.6709

          k =-0.6667 1.0000-0.3333 (  1080 PWs)   bands (ev):

    -4.1870   1.3036   3.5885   5.7141

          k =-0.6667-1.0000 0.3333 (  1080 PWs)   bands (ev):

    -4.2843   2.0595   3.5841   4.8968

          k =-0.5000-0.1667-0.8333 (  1090 PWs)   bands (ev):

    -3.2164   0.4634   2.6083   5.0574

          k = 0.5000 0.1667-0.8333 (  1090 PWs)   bands (ev):

    -3.2692   0.4716   3.3807   4.2574

          k = 0.1667-0.5000-0.8333 (  1090 PWs)   bands (ev):

    -3.3458   0.9351   2.7031   4.5538

          k = 0.8333 0.1667 0.5000 (  1090 PWs)   bands (ev):

    -3.2460   0.4870   2.9394   4.6625

          k =-0.8333 0.1667-0.5000 (  1090 PWs)   bands (ev):

    -3.0942   0.0107   2.9242   5.0313

          k = 0.8333-0.1667-0.5000 (  1090 PWs)   bands (ev):

    -3.3726   0.9629   3.1468   4.0708

          k = 0.0000 1.0000-0.3333 (  1090 PWs)   bands (ev):

    -2.8016   0.3942   3.0483   3.6911

          k = 0.3333 0.0000-1.0000 (  1090 PWs)   bands (ev):

    -2.7877   0.2913   3.2578   3.5981

     highest occupied level (ev):     9.7036

!    total energy              =     -46.17340703 Ry
     estimated scf accuracy    <          2.9E-09 Ry

     The total energy is the sum of the following terms:
     one-electron contribution =       6.69357377 Ry
     hartree contribution      =       1.24766910 Ry
     xc contribution           =     -34.15597270 Ry
     ewald contribution        =     -19.95867719 Ry

     convergence has been achieved in   8 iterations

     Forces acting on atoms (cartesian axes, Ry/au):

     atom    1 type  1   force =    -0.07837281    0.07837281   -0.02690560
     atom    2 type  2   force =     0.07837281   -0.07837281    0.02690560

     Total force =     0.161298     Total SCF correction =     0.000010


     Computing stress (Cartesian axis) and pressure

          total   stress  (Ry/bohr**3)                   (kbar)     P=        6.21
   0.00001205  -0.00015962   0.00036230            1.77      -23.48       53.30
  -0.00015962   0.00001205  -0.00036230          -23.48        1.77      -53.30
   0.00036230  -0.00036230   0.00010252           53.30      -53.30       15.08


     Writing all to output data dir ./z-50.save/
 
     init_run     :      3.14s CPU      3.45s WALL (       1 calls)
     electrons    :     29.11s CPU     31.23s WALL (       1 calls)
     forces       :      0.54s CPU      0.60s WALL (       1 calls)
     stress       :      4.38s CPU      4.53s WALL (       1 calls)

     Called by init_run:
     wfcinit      :      1.15s CPU      1.27s WALL (       1 calls)
     potinit      :      0.05s CPU      0.07s WALL (       1 calls)
     hinit0       :      1.61s CPU      1.70s WALL (       1 calls)

     Called by electrons:
     c_bands      :     21.43s CPU     22.84s WALL (       8 calls)
     sum_band     :      5.34s CPU      5.69s WALL (       8 calls)
     v_of_rho     :      0.29s CPU      0.31s WALL (       9 calls)
     newd         :      2.19s CPU      2.48s WALL (       9 calls)
     mix_rho      :      0.08s CPU      0.08s WALL (       8 calls)

     Called by c_bands:
     init_us_2    :      1.82s CPU      1.94s WALL (    1292 calls)
     init_us_2:cp :      1.79s CPU      1.92s WALL (    1292 calls)
     ccgdiagg     :     17.01s CPU     18.15s WALL (     544 calls)
     wfcrot       :      4.44s CPU      4.66s WALL (     544 calls)

     Called by *cgdiagg:
     h_psi        :     17.98s CPU     18.94s WALL (    8163 calls)
     s_psi        :      1.16s CPU      1.30s WALL (   15782 calls)

     Called by h_psi:
     h_psi:calbec :      1.15s CPU      1.22s WALL (    8163 calls)
     vloc_psi     :     15.58s CPU     16.38s WALL (    8163 calls)
     add_vuspsi   :      0.77s CPU      0.83s WALL (    8163 calls)
     hs_1psi      :     14.96s CPU     15.86s WALL (    7619 calls)
     s_1psi       :      1.41s CPU      1.57s WALL (    7619 calls)

     General routines
     calbec       :      1.69s CPU      1.88s WALL (   16666 calls)
     fft          :      0.18s CPU      0.22s WALL (      60 calls)
     ffts         :      0.01s CPU      0.02s WALL (      17 calls)
     fftw         :     15.04s CPU     15.79s WALL (   22310 calls)
     interpolate  :      0.04s CPU      0.05s WALL (       9 calls)
 
     Parallel routines
 
     PWSCF        :     38.06s CPU     42.09s WALL

 
   This run was terminated on:  17:25:29  17Feb2022            

=------------------------------------------------------------------------------=
   JOB DONE.
=------------------------------------------------------------------------------=
