
     Program PWSCF v.7.0 starts on 17Feb2022 at 17:25:58 

     This program is part of the open-source Quantum ESPRESSO suite
     for quantum simulation of materials; please cite
         "P. Giannozzi et al., J. Phys.:Condens. Matter 21 395502 (2009);
         "P. Giannozzi et al., J. Phys.:Condens. Matter 29 465901 (2017);
         "P. Giannozzi et al., J. Chem. Phys. 152 154105 (2020);
          URL http://www.quantum-espresso.org", 
     in publications or presentations arising from this work. More details at
     http://www.quantum-espresso.org/quote

     Parallel version (MPI), running on     1 processors

     MPI processes distributed on     1 nodes
     91063 MiB available memory on the printing compute node when the environment starts
 
     Waiting for input...
     Reading input from standard input
Warning: card &CELL ignored
Warning: card  CELL_DYNAMICS = 'BFGS', ignored
Warning: card  PRESS=0.1D0, ignored
Warning: card / ignored

     Current dimensions of program PWSCF are:
     Max number of different atomic species (ntypx) = 10
     Max number of k-points (npk) =  40000
     Max angular momentum in pseudopotentials (lmaxx) =  4

     Subspace diagonalization in iterative solution of the eigenvalue problem:
     a serial algorithm will be used

 
     G-vector sticks info
     --------------------
     sticks:   dense  smooth     PW     G-vecs:    dense   smooth      PW
     Sum        2017     673    211                59535    11575    1989
 
     Using Slab Decomposition
 


     bravais-lattice index     =            2
     lattice parameter (alat)  =       9.0000  a.u.
     unit-cell volume          =     182.2500 (a.u.)^3
     number of atoms/cell      =            2
     number of atomic types    =            2
     number of electrons       =         8.00
     number of Kohn-Sham states=            4
     kinetic-energy cutoff     =      60.0000  Ry
     charge density cutoff     =     720.0000  Ry
     scf convergence threshold =      1.0E-08
     mixing beta               =       0.7000
     number of iterations used =            8  plain     mixing
     Exchange-correlation= SLA  PZ   NOGX NOGC
                           (   1   1   0   0   0   0   0)

     celldm(1)=   9.000000  celldm(2)=   0.000000  celldm(3)=   0.000000
     celldm(4)=   0.000000  celldm(5)=   0.000000  celldm(6)=   0.000000

     crystal axes: (cart. coord. in units of alat)
               a(1) = (  -0.500000   0.000000   0.500000 )  
               a(2) = (   0.000000   0.500000   0.500000 )  
               a(3) = (  -0.500000   0.500000   0.000000 )  

     reciprocal axes: (cart. coord. in units 2 pi/alat)
               b(1) = ( -1.000000 -1.000000  1.000000 )  
               b(2) = (  1.000000  1.000000  1.000000 )  
               b(3) = ( -1.000000  1.000000 -1.000000 )  


     PseudoPot. # 1 for B  read from file:
     ./pseudo_dir/B_LDA.UPF
     MD5 check sum: a9970de764dbc07c3a3d9583c605c3b2
     Pseudo is Ultrasoft + core correction, Zval =  3.0
     Generated by new atomic code, or converted to UPF format
     Using radial grid of  781 points,  4 beta functions with: 
                l(1) =   0
                l(2) =   0
                l(3) =   1
                l(4) =   1
     Q(r) pseudized with  8 coefficients,  rinner =    1.100   1.100   1.100


     PseudoPot. # 2 for As read from file:
     ./pseudo_dir/As_LDA.UPF
     MD5 check sum: 6d2e8cbe4ed9d0db7c6ef7a361cc050d
     Pseudo is Ultrasoft + core correction, Zval =  5.0
     Generated by new atomic code, or converted to UPF format
     Using radial grid of  875 points,  6 beta functions with: 
                l(1) =   0
                l(2) =   0
                l(3) =   1
                l(4) =   1
                l(5) =   2
                l(6) =   2
     Q(r) pseudized with  8 coefficients,  rinner =    1.300   1.300   1.300
                                                       1.300   1.300

     atomic species   valence    mass     pseudopotential
        B              3.00    10.81100     B ( 1.00)
        As             5.00    74.92160     As( 1.00)

      2 Sym. Ops. (no inversion) found



   Cartesian axes

     site n.     atom                  positions (alat units)
         1           B   tau(   1) = (   0.0000000   0.0000000   0.0000000  )
         2           As  tau(   2) = (  -0.2750000   0.2750000   0.2500000  )

     number of k points=    68
                       cart. coord. in units 2pi/alat
        k(    1) = (   0.0000000   0.0000000   0.0000000), wk =   0.0092593
        k(    2) = (  -0.1666667   0.1666667  -0.1666667), wk =   0.0185185
        k(    3) = (  -0.3333333   0.3333333  -0.3333333), wk =   0.0185185
        k(    4) = (   0.5000000  -0.5000000   0.5000000), wk =   0.0092593
        k(    5) = (   0.0000000   0.3333333   0.0000000), wk =   0.0370370
        k(    6) = (  -0.1666667   0.5000000  -0.1666667), wk =   0.0370370
        k(    7) = (   0.6666667  -0.3333333   0.6666667), wk =   0.0370370
        k(    8) = (   0.5000000  -0.1666667   0.5000000), wk =   0.0370370
        k(    9) = (   0.3333333  -0.0000000   0.3333333), wk =   0.0370370
        k(   10) = (   0.0000000   0.6666667   0.0000000), wk =   0.0370370
        k(   11) = (   0.8333333  -0.1666667   0.8333333), wk =   0.0370370
        k(   12) = (   0.6666667  -0.0000000   0.6666667), wk =   0.0370370
        k(   13) = (   0.0000000  -1.0000000   0.0000000), wk =   0.0185185
        k(   14) = (   0.6666667  -0.3333333   1.0000000), wk =   0.0370370
        k(   15) = (   0.5000000  -0.1666667   0.8333333), wk =   0.0370370
        k(   16) = (  -0.3333333  -1.0000000   0.0000000), wk =   0.0370370
        k(   17) = (   0.1666667   0.1666667   0.1666667), wk =   0.0370370
        k(   18) = (  -0.1666667   0.1666667   0.1666667), wk =   0.0185185
        k(   19) = (   0.3333333   0.3333333   0.3333333), wk =   0.0370370
        k(   20) = (  -0.3333333   0.3333333   0.3333333), wk =   0.0185185
        k(   21) = (  -0.5000000  -0.5000000  -0.5000000), wk =   0.0185185
        k(   22) = (   0.5000000  -0.5000000  -0.5000000), wk =   0.0092593
        k(   23) = (   0.0000000   0.0000000   0.3333333), wk =   0.0185185
        k(   24) = (   0.1666667   0.5000000   0.1666667), wk =   0.0370370
        k(   25) = (  -0.1666667  -0.5000000   0.1666667), wk =   0.0370370
        k(   26) = (  -0.5000000   0.1666667   0.1666667), wk =   0.0370370
        k(   27) = (   0.1666667  -0.1666667   0.5000000), wk =   0.0185185
        k(   28) = (   0.1666667   0.1666667  -0.5000000), wk =   0.0370370
        k(   29) = (  -0.1666667   0.1666667   0.5000000), wk =   0.0185185
        k(   30) = (  -0.6666667  -0.3333333  -0.6666667), wk =   0.0370370
        k(   31) = (   0.6666667   0.3333333  -0.6666667), wk =   0.0370370
        k(   32) = (   0.3333333  -0.6666667  -0.6666667), wk =   0.0370370
        k(   33) = (  -0.6666667   0.6666667  -0.3333333), wk =   0.0185185
        k(   34) = (  -0.6666667  -0.6666667   0.3333333), wk =   0.0370370
        k(   35) = (   0.6666667  -0.6666667  -0.3333333), wk =   0.0185185
        k(   36) = (  -0.5000000  -0.1666667  -0.5000000), wk =   0.0370370
        k(   37) = (   0.5000000   0.1666667  -0.5000000), wk =   0.0370370
        k(   38) = (   0.1666667  -0.5000000  -0.5000000), wk =   0.0370370
        k(   39) = (  -0.5000000   0.5000000  -0.1666667), wk =   0.0185185
        k(   40) = (  -0.5000000  -0.5000000   0.1666667), wk =   0.0370370
        k(   41) = (   0.5000000  -0.5000000  -0.1666667), wk =   0.0185185
        k(   42) = (   0.3333333   0.0000000  -0.3333333), wk =   0.0370370
        k(   43) = (  -0.3333333   0.3333333  -0.0000000), wk =   0.0185185
        k(   44) = (  -0.3333333  -0.3333333   0.0000000), wk =   0.0185185
        k(   45) = (   0.0000000   0.0000000   0.6666667), wk =   0.0185185
        k(   46) = (  -0.8333333  -0.1666667  -0.8333333), wk =   0.0370370
        k(   47) = (   0.8333333   0.1666667  -0.8333333), wk =   0.0370370
        k(   48) = (   0.1666667  -0.8333333  -0.8333333), wk =   0.0370370
        k(   49) = (  -0.8333333   0.8333333  -0.1666667), wk =   0.0185185
        k(   50) = (  -0.8333333  -0.8333333   0.1666667), wk =   0.0370370
        k(   51) = (   0.8333333  -0.8333333  -0.1666667), wk =   0.0185185
        k(   52) = (   0.6666667   0.0000000  -0.6666667), wk =   0.0370370
        k(   53) = (  -0.6666667   0.6666667   0.0000000), wk =   0.0185185
        k(   54) = (  -0.6666667  -0.6666667   0.0000000), wk =   0.0185185
        k(   55) = (   0.0000000   0.0000000  -1.0000000), wk =   0.0092593
        k(   56) = (  -0.6666667  -0.3333333  -1.0000000), wk =   0.0370370
        k(   57) = (   1.0000000   0.3333333   0.6666667), wk =   0.0370370
        k(   58) = (  -1.0000000   0.3333333  -0.6666667), wk =   0.0370370
        k(   59) = (  -0.6666667   1.0000000  -0.3333333), wk =   0.0370370
        k(   60) = (  -0.6666667  -1.0000000   0.3333333), wk =   0.0370370
        k(   61) = (  -0.5000000  -0.1666667  -0.8333333), wk =   0.0370370
        k(   62) = (   0.5000000   0.1666667  -0.8333333), wk =   0.0370370
        k(   63) = (   0.1666667  -0.5000000  -0.8333333), wk =   0.0370370
        k(   64) = (   0.8333333   0.1666667   0.5000000), wk =   0.0370370
        k(   65) = (  -0.8333333   0.1666667  -0.5000000), wk =   0.0185185
        k(   66) = (   0.8333333  -0.1666667  -0.5000000), wk =   0.0185185
        k(   67) = (   0.0000000   1.0000000  -0.3333333), wk =   0.0370370
        k(   68) = (   0.3333333   0.0000000  -1.0000000), wk =   0.0370370

     Dense  grid:    59535 G-vectors     FFT dimensions: (  60,  60,  60)

     Smooth grid:    11575 G-vectors     FFT dimensions: (  32,  32,  32)

     Estimated max dynamical RAM per process >     234.53 MB

     Initial potential from superposition of free atoms

     starting charge       7.9996, renormalised to       8.0000
     Starting wfcs are    8 randomized atomic wfcs

     total cpu time spent up to now is        5.1 secs

     Self-consistent Calculation

     iteration #  1     ecut=    60.00 Ry     beta= 0.70
     CG style diagonalization
     ethr =  1.00E-02,  avg # of iterations =  2.7

     total cpu time spent up to now is        8.2 secs

     total energy              =     -46.12975449 Ry
     estimated scf accuracy    <       0.15082598 Ry

     iteration #  2     ecut=    60.00 Ry     beta= 0.70
     CG style diagonalization
     ethr =  1.89E-03,  avg # of iterations =  4.2

     total cpu time spent up to now is       12.0 secs

     total energy              =     -46.16400526 Ry
     estimated scf accuracy    <       0.04254096 Ry

     iteration #  3     ecut=    60.00 Ry     beta= 0.70
     CG style diagonalization
     ethr =  5.32E-04,  avg # of iterations =  4.1

     total cpu time spent up to now is       15.7 secs

     total energy              =     -46.17335580 Ry
     estimated scf accuracy    <       0.00041304 Ry

     iteration #  4     ecut=    60.00 Ry     beta= 0.70
     CG style diagonalization
     ethr =  5.16E-06,  avg # of iterations =  4.9

     total cpu time spent up to now is       20.0 secs

     total energy              =     -46.17370733 Ry
     estimated scf accuracy    <       0.00012796 Ry

     iteration #  5     ecut=    60.00 Ry     beta= 0.70
     CG style diagonalization
     ethr =  1.60E-06,  avg # of iterations =  4.1

     total cpu time spent up to now is       23.8 secs

     total energy              =     -46.17374234 Ry
     estimated scf accuracy    <       0.00000678 Ry

     iteration #  6     ecut=    60.00 Ry     beta= 0.70
     CG style diagonalization
     ethr =  8.47E-08,  avg # of iterations =  5.3

     total cpu time spent up to now is       28.2 secs

     total energy              =     -46.17374776 Ry
     estimated scf accuracy    <       0.00000022 Ry

     iteration #  7     ecut=    60.00 Ry     beta= 0.70
     CG style diagonalization
     ethr =  2.70E-09,  avg # of iterations =  5.8

     total cpu time spent up to now is       33.0 secs

     total energy              =     -46.17374811 Ry
     estimated scf accuracy    <       0.00000004 Ry

     iteration #  8     ecut=    60.00 Ry     beta= 0.70
     CG style diagonalization
     ethr =  4.53E-10,  avg # of iterations =  4.1

     total cpu time spent up to now is       36.8 secs

     End of self-consistent calculation

          k = 0.0000 0.0000 0.0000 (  1459 PWs)   bands (ev):

    -7.0177   7.3318   8.5558   9.7024

          k =-0.1667 0.1667-0.1667 (  1426 PWs)   bands (ev):

    -6.5578   4.9033   7.6936   8.5138

          k =-0.3333 0.3333-0.3333 (  1441 PWs)   bands (ev):

    -5.2531   1.2783   6.7210   7.5107

          k = 0.5000-0.5000 0.5000 (  1458 PWs)   bands (ev):

    -3.9887  -0.8395   6.3727   7.1757

          k = 0.0000 0.3333 0.0000 (  1431 PWs)   bands (ev):

    -6.4133   5.7371   6.6331   7.3006

          k =-0.1667 0.5000-0.1667 (  1426 PWs)   bands (ev):

    -5.3835   2.5637   5.8055   6.3722

          k = 0.6667-0.3333 0.6667 (  1435 PWs)   bands (ev):

    -3.8678  -0.2139   4.7842   6.2152

          k = 0.5000-0.1667 0.5000 (  1427 PWs)   bands (ev):

    -4.3443   0.5033   4.4269   6.9577

          k = 0.3333-0.0000 0.3333 (  1416 PWs)   bands (ev):

    -5.8167   3.4026   5.2032   8.2794

          k = 0.0000 0.6667 0.0000 (  1427 PWs)   bands (ev):

    -4.6924   2.4947   4.7607   5.3042

          k = 0.8333-0.1667 0.8333 (  1435 PWs)   bands (ev):

    -3.3871   0.5845   3.3413   5.0715

          k = 0.6667-0.0000 0.6667 (  1430 PWs)   bands (ev):

    -3.1523   0.3643   2.2325   5.7598

          k = 0.0000-1.0000 0.0000 (  1428 PWs)   bands (ev):

    -2.9201   0.0361   4.1389   4.6377

          k = 0.6667-0.3333 1.0000 (  1429 PWs)   bands (ev):

    -4.2384   1.6562   3.6263   5.2520

          k = 0.5000-0.1667 0.8333 (  1430 PWs)   bands (ev):

    -3.1207  -0.0022   3.2992   4.6635

          k =-0.3333-1.0000 0.0000 (  1430 PWs)   bands (ev):

    -2.7987   0.3632   3.0928   3.6801

          k = 0.1667 0.1667 0.1667 (  1426 PWs)   bands (ev):

    -6.5656   5.3880   7.1009   8.6513

          k =-0.1667 0.1667 0.1667 (  1426 PWs)   bands (ev):

    -6.5735   5.9210   7.0259   7.9898

          k = 0.3333 0.3333 0.3333 (  1441 PWs)   bands (ev):

    -5.3053   1.6899   6.2580   7.7773

          k =-0.3333 0.3333 0.3333 (  1441 PWs)   bands (ev):

    -5.3552   2.1020   6.3125   7.2782

          k =-0.5000-0.5000-0.5000 (  1458 PWs)   bands (ev):

    -4.1702  -0.3329   5.9522   7.4878

          k = 0.5000-0.5000-0.5000 (  1458 PWs)   bands (ev):

    -4.3185   0.1422   6.0502   7.0184

          k = 0.0000 0.0000 0.3333 (  1431 PWs)   bands (ev):

    -6.4136   5.5708   6.7694   7.4075

          k = 0.1667 0.5000 0.1667 (  1426 PWs)   bands (ev):

    -5.4148   3.1540   5.1364   6.4256

          k =-0.1667-0.5000 0.1667 (  1426 PWs)   bands (ev):

    -5.3987   2.7995   5.4910   6.5753

          k =-0.5000 0.1667 0.1667 (  1426 PWs)   bands (ev):

    -5.4297   3.3390   5.4011   6.0174

          k = 0.1667-0.1667 0.5000 (  1426 PWs)   bands (ev):

    -5.3753   2.4159   5.8441   6.5996

          k = 0.1667 0.1667-0.5000 (  1426 PWs)   bands (ev):

    -5.4068   2.8997   5.4134   6.5240

          k =-0.1667 0.1667 0.5000 (  1426 PWs)   bands (ev):

    -5.4376   3.5512   5.0982   6.0655

          k =-0.6667-0.3333-0.6667 (  1435 PWs)   bands (ev):

    -4.0096   0.3150   4.2897   6.3879

          k = 0.6667 0.3333-0.6667 (  1435 PWs)   bands (ev):

    -4.0007   0.2082   5.0897   5.6690

          k = 0.3333-0.6667-0.6667 (  1435 PWs)   bands (ev):

    -4.1225   0.7190   4.6711   5.6889

          k =-0.6667 0.6667-0.3333 (  1435 PWs)   bands (ev):

    -3.8611  -0.2665   5.3171   5.7221

          k =-0.6667-0.6667 0.3333 (  1435 PWs)   bands (ev):

    -4.0043   0.2498   4.5493   6.2363

          k = 0.6667-0.6667-0.3333 (  1435 PWs)   bands (ev):

    -4.1255   0.7752   4.2663   6.0480

          k =-0.5000-0.1667-0.5000 (  1427 PWs)   bands (ev):

    -4.4103   0.8771   4.0574   7.1314

          k = 0.5000 0.1667-0.5000 (  1427 PWs)   bands (ev):

    -4.4648   1.0588   4.7199   6.0846

          k = 0.1667-0.5000-0.5000 (  1427 PWs)   bands (ev):

    -4.5229   1.4599   4.3065   6.1995

          k =-0.5000 0.5000-0.1667 (  1427 PWs)   bands (ev):

    -4.3736   0.5875   4.7811   6.4070

          k =-0.5000-0.5000 0.1667 (  1427 PWs)   bands (ev):

    -4.4381   0.9893   4.2212   6.8131

          k = 0.5000-0.5000-0.1667 (  1427 PWs)   bands (ev):

    -4.4973   1.3620   3.9863   6.7017

          k = 0.3333 0.0000-0.3333 (  1416 PWs)   bands (ev):

    -5.8523   4.3217   5.1058   7.0458

          k =-0.3333 0.3333-0.0000 (  1416 PWs)   bands (ev):

    -5.8346   3.7506   5.2529   7.6182

          k =-0.3333-0.3333 0.0000 (  1416 PWs)   bands (ev):

    -5.8344   3.9678   4.8786   7.8917

          k = 0.0000 0.0000 0.6667 (  1427 PWs)   bands (ev):

    -4.6914   2.3747   4.9974   5.2508

          k =-0.8333-0.1667-0.8333 (  1435 PWs)   bands (ev):

    -3.4534   0.9715   2.9640   5.1075

          k = 0.8333 0.1667-0.8333 (  1435 PWs)   bands (ev):

    -3.4389   0.7034   3.8473   4.5349

          k = 0.1667-0.8333-0.8333 (  1435 PWs)   bands (ev):

    -3.5002   1.0316   3.5172   4.5602

          k =-0.8333 0.8333-0.1667 (  1435 PWs)   bands (ev):

    -3.3721   0.4083   3.8645   4.7571

          k =-0.8333-0.8333 0.1667 (  1435 PWs)   bands (ev):

    -3.4401   0.7448   3.3853   4.9964

          k = 0.8333-0.8333-0.1667 (  1435 PWs)   bands (ev):

    -3.5011   1.0817   3.1895   4.8265

          k = 0.6667 0.0000-0.6667 (  1430 PWs)   bands (ev):

    -3.3424   0.9547   2.4527   5.0986

          k =-0.6667 0.6667 0.0000 (  1430 PWs)   bands (ev):

    -3.2468   0.5716   2.4359   5.4087

          k =-0.6667-0.6667 0.0000 (  1430 PWs)   bands (ev):

    -3.2509   0.6814   2.2301   5.6017

          k = 0.0000 0.0000-1.0000 (  1428 PWs)   bands (ev):

    -2.9025  -0.0603   4.3693   4.5474

          k =-0.6667-0.3333-1.0000 (  1429 PWs)   bands (ev):

    -4.2391   1.7640   3.3657   5.4497

          k = 1.0000 0.3333 0.6667 (  1429 PWs)   bands (ev):

    -4.2864   2.1592   3.4727   4.8803

          k =-1.0000 0.3333-0.6667 (  1429 PWs)   bands (ev):

    -4.1893   1.3520   3.5482   5.6700

          k =-0.6667 1.0000-0.3333 (  1429 PWs)   bands (ev):

    -4.1879   1.3027   3.5876   5.7131

          k =-0.6667-1.0000 0.3333 (  1429 PWs)   bands (ev):

    -4.2852   2.0585   3.5832   4.8958

          k =-0.5000-0.1667-0.8333 (  1430 PWs)   bands (ev):

    -3.2174   0.4626   2.6076   5.0565

          k = 0.5000 0.1667-0.8333 (  1430 PWs)   bands (ev):

    -3.2702   0.4708   3.3798   4.2566

          k = 0.1667-0.5000-0.8333 (  1430 PWs)   bands (ev):

    -3.3467   0.9342   2.7023   4.5529

          k = 0.8333 0.1667 0.5000 (  1430 PWs)   bands (ev):

    -3.2470   0.4863   2.9386   4.6616

          k =-0.8333 0.1667-0.5000 (  1430 PWs)   bands (ev):

    -3.0952   0.0100   2.9234   5.0304

          k = 0.8333-0.1667-0.5000 (  1430 PWs)   bands (ev):

    -3.3736   0.9621   3.1460   4.0700

          k = 0.0000 1.0000-0.3333 (  1430 PWs)   bands (ev):

    -2.8026   0.3934   3.0475   3.6903

          k = 0.3333 0.0000-1.0000 (  1430 PWs)   bands (ev):

    -2.7888   0.2905   3.2570   3.5973

     highest occupied level (ev):     9.7024

!    total energy              =     -46.17374812 Ry
     estimated scf accuracy    <          5.5E-09 Ry

     The total energy is the sum of the following terms:
     one-electron contribution =       6.69169158 Ry
     hartree contribution      =       1.24762021 Ry
     xc contribution           =     -34.15438271 Ry
     ewald contribution        =     -19.95867719 Ry

     convergence has been achieved in   8 iterations

     Forces acting on atoms (cartesian axes, Ry/au):

     atom    1 type  1   force =    -0.07833583    0.07833583   -0.02683111
     atom    2 type  2   force =     0.07833583   -0.07833583    0.02683111

     Total force =     0.161201     Total SCF correction =     0.000015


     Computing stress (Cartesian axis) and pressure

          total   stress  (Ry/bohr**3)                   (kbar)     P=        5.65
   0.00000827  -0.00015954   0.00036165            1.22      -23.47       53.20
  -0.00015954   0.00000827  -0.00036165          -23.47        1.22      -53.20
   0.00036165  -0.00036165   0.00009861           53.20      -53.20       14.51


     Writing all to output data dir ./z-60.save/
 
     init_run     :      3.37s CPU      3.72s WALL (       1 calls)
     electrons    :     29.21s CPU     31.76s WALL (       1 calls)
     forces       :      0.73s CPU      0.78s WALL (       1 calls)
     stress       :      5.77s CPU      5.94s WALL (       1 calls)

     Called by init_run:
     wfcinit      :      1.11s CPU      1.22s WALL (       1 calls)
     potinit      :      0.08s CPU      0.11s WALL (       1 calls)
     hinit0       :      1.75s CPU      1.85s WALL (       1 calls)

     Called by electrons:
     c_bands      :     19.86s CPU     21.55s WALL (       8 calls)
     sum_band     :      6.15s CPU      6.56s WALL (       8 calls)
     v_of_rho     :      0.50s CPU      0.54s WALL (       9 calls)
     newd         :      2.87s CPU      3.25s WALL (       9 calls)
     mix_rho      :      0.11s CPU      0.12s WALL (       8 calls)

     Called by c_bands:
     init_us_2    :      2.40s CPU      2.51s WALL (    1292 calls)
     init_us_2:cp :      2.37s CPU      2.49s WALL (    1292 calls)
     ccgdiagg     :     15.66s CPU     17.05s WALL (     544 calls)
     wfcrot       :      3.86s CPU      4.09s WALL (     544 calls)

     Called by *cgdiagg:
     h_psi        :     15.06s CPU     16.15s WALL (    8231 calls)
     s_psi        :      1.70s CPU      1.92s WALL (   15918 calls)

     Called by h_psi:
     h_psi:calbec :      1.28s CPU      1.39s WALL (    8231 calls)
     vloc_psi     :     12.28s CPU     13.15s WALL (    8231 calls)
     add_vuspsi   :      1.00s CPU      1.10s WALL (    8231 calls)
     hs_1psi      :     12.96s CPU     14.00s WALL (    7687 calls)
     s_1psi       :      1.91s CPU      2.12s WALL (    7687 calls)

     General routines
     calbec       :      2.08s CPU      2.34s WALL (   16802 calls)
     fft          :      0.29s CPU      0.31s WALL (      60 calls)
     ffts         :      0.01s CPU      0.02s WALL (      17 calls)
     fftw         :     10.40s CPU     11.10s WALL (   22446 calls)
     interpolate  :      0.06s CPU      0.08s WALL (       9 calls)
 
     Parallel routines
 
     PWSCF        :     39.96s CPU     44.51s WALL

 
   This run was terminated on:  17:26:42  17Feb2022            

=------------------------------------------------------------------------------=
   JOB DONE.
=------------------------------------------------------------------------------=
