
     Program PWSCF v.7.0 starts on 17Feb2022 at 17:27:28 

     This program is part of the open-source Quantum ESPRESSO suite
     for quantum simulation of materials; please cite
         "P. Giannozzi et al., J. Phys.:Condens. Matter 21 395502 (2009);
         "P. Giannozzi et al., J. Phys.:Condens. Matter 29 465901 (2017);
         "P. Giannozzi et al., J. Chem. Phys. 152 154105 (2020);
          URL http://www.quantum-espresso.org", 
     in publications or presentations arising from this work. More details at
     http://www.quantum-espresso.org/quote

     Parallel version (MPI), running on     1 processors

     MPI processes distributed on     1 nodes
     88266 MiB available memory on the printing compute node when the environment starts
 
     Waiting for input...
     Reading input from standard input
Warning: card &CELL ignored
Warning: card  CELL_DYNAMICS = 'BFGS', ignored
Warning: card  PRESS=0.1D0, ignored
Warning: card / ignored

     Current dimensions of program PWSCF are:
     Max number of different atomic species (ntypx) = 10
     Max number of k-points (npk) =  40000
     Max angular momentum in pseudopotentials (lmaxx) =  4

     Subspace diagonalization in iterative solution of the eigenvalue problem:
     a serial algorithm will be used

 
     G-vector sticks info
     --------------------
     sticks:   dense  smooth     PW     G-vecs:    dense   smooth      PW
     Sum        2347     769    241                75089    14331    2421
 
     Using Slab Decomposition
 


     bravais-lattice index     =            2
     lattice parameter (alat)  =       9.0000  a.u.
     unit-cell volume          =     182.2500 (a.u.)^3
     number of atoms/cell      =            2
     number of atomic types    =            2
     number of electrons       =         8.00
     number of Kohn-Sham states=            4
     kinetic-energy cutoff     =      70.0000  Ry
     charge density cutoff     =     840.0000  Ry
     scf convergence threshold =      1.0E-08
     mixing beta               =       0.7000
     number of iterations used =            8  plain     mixing
     Exchange-correlation= SLA  PZ   NOGX NOGC
                           (   1   1   0   0   0   0   0)

     celldm(1)=   9.000000  celldm(2)=   0.000000  celldm(3)=   0.000000
     celldm(4)=   0.000000  celldm(5)=   0.000000  celldm(6)=   0.000000

     crystal axes: (cart. coord. in units of alat)
               a(1) = (  -0.500000   0.000000   0.500000 )  
               a(2) = (   0.000000   0.500000   0.500000 )  
               a(3) = (  -0.500000   0.500000   0.000000 )  

     reciprocal axes: (cart. coord. in units 2 pi/alat)
               b(1) = ( -1.000000 -1.000000  1.000000 )  
               b(2) = (  1.000000  1.000000  1.000000 )  
               b(3) = ( -1.000000  1.000000 -1.000000 )  


     PseudoPot. # 1 for B  read from file:
     ./pseudo_dir/B_LDA.UPF
     MD5 check sum: a9970de764dbc07c3a3d9583c605c3b2
     Pseudo is Ultrasoft + core correction, Zval =  3.0
     Generated by new atomic code, or converted to UPF format
     Using radial grid of  781 points,  4 beta functions with: 
                l(1) =   0
                l(2) =   0
                l(3) =   1
                l(4) =   1
     Q(r) pseudized with  8 coefficients,  rinner =    1.100   1.100   1.100


     PseudoPot. # 2 for As read from file:
     ./pseudo_dir/As_LDA.UPF
     MD5 check sum: 6d2e8cbe4ed9d0db7c6ef7a361cc050d
     Pseudo is Ultrasoft + core correction, Zval =  5.0
     Generated by new atomic code, or converted to UPF format
     Using radial grid of  875 points,  6 beta functions with: 
                l(1) =   0
                l(2) =   0
                l(3) =   1
                l(4) =   1
                l(5) =   2
                l(6) =   2
     Q(r) pseudized with  8 coefficients,  rinner =    1.300   1.300   1.300
                                                       1.300   1.300

     atomic species   valence    mass     pseudopotential
        B              3.00    10.81100     B ( 1.00)
        As             5.00    74.92160     As( 1.00)

      2 Sym. Ops. (no inversion) found



   Cartesian axes

     site n.     atom                  positions (alat units)
         1           B   tau(   1) = (   0.0000000   0.0000000   0.0000000  )
         2           As  tau(   2) = (  -0.2750000   0.2750000   0.2500000  )

     number of k points=    68
                       cart. coord. in units 2pi/alat
        k(    1) = (   0.0000000   0.0000000   0.0000000), wk =   0.0092593
        k(    2) = (  -0.1666667   0.1666667  -0.1666667), wk =   0.0185185
        k(    3) = (  -0.3333333   0.3333333  -0.3333333), wk =   0.0185185
        k(    4) = (   0.5000000  -0.5000000   0.5000000), wk =   0.0092593
        k(    5) = (   0.0000000   0.3333333   0.0000000), wk =   0.0370370
        k(    6) = (  -0.1666667   0.5000000  -0.1666667), wk =   0.0370370
        k(    7) = (   0.6666667  -0.3333333   0.6666667), wk =   0.0370370
        k(    8) = (   0.5000000  -0.1666667   0.5000000), wk =   0.0370370
        k(    9) = (   0.3333333  -0.0000000   0.3333333), wk =   0.0370370
        k(   10) = (   0.0000000   0.6666667   0.0000000), wk =   0.0370370
        k(   11) = (   0.8333333  -0.1666667   0.8333333), wk =   0.0370370
        k(   12) = (   0.6666667  -0.0000000   0.6666667), wk =   0.0370370
        k(   13) = (   0.0000000  -1.0000000   0.0000000), wk =   0.0185185
        k(   14) = (   0.6666667  -0.3333333   1.0000000), wk =   0.0370370
        k(   15) = (   0.5000000  -0.1666667   0.8333333), wk =   0.0370370
        k(   16) = (  -0.3333333  -1.0000000   0.0000000), wk =   0.0370370
        k(   17) = (   0.1666667   0.1666667   0.1666667), wk =   0.0370370
        k(   18) = (  -0.1666667   0.1666667   0.1666667), wk =   0.0185185
        k(   19) = (   0.3333333   0.3333333   0.3333333), wk =   0.0370370
        k(   20) = (  -0.3333333   0.3333333   0.3333333), wk =   0.0185185
        k(   21) = (  -0.5000000  -0.5000000  -0.5000000), wk =   0.0185185
        k(   22) = (   0.5000000  -0.5000000  -0.5000000), wk =   0.0092593
        k(   23) = (   0.0000000   0.0000000   0.3333333), wk =   0.0185185
        k(   24) = (   0.1666667   0.5000000   0.1666667), wk =   0.0370370
        k(   25) = (  -0.1666667  -0.5000000   0.1666667), wk =   0.0370370
        k(   26) = (  -0.5000000   0.1666667   0.1666667), wk =   0.0370370
        k(   27) = (   0.1666667  -0.1666667   0.5000000), wk =   0.0185185
        k(   28) = (   0.1666667   0.1666667  -0.5000000), wk =   0.0370370
        k(   29) = (  -0.1666667   0.1666667   0.5000000), wk =   0.0185185
        k(   30) = (  -0.6666667  -0.3333333  -0.6666667), wk =   0.0370370
        k(   31) = (   0.6666667   0.3333333  -0.6666667), wk =   0.0370370
        k(   32) = (   0.3333333  -0.6666667  -0.6666667), wk =   0.0370370
        k(   33) = (  -0.6666667   0.6666667  -0.3333333), wk =   0.0185185
        k(   34) = (  -0.6666667  -0.6666667   0.3333333), wk =   0.0370370
        k(   35) = (   0.6666667  -0.6666667  -0.3333333), wk =   0.0185185
        k(   36) = (  -0.5000000  -0.1666667  -0.5000000), wk =   0.0370370
        k(   37) = (   0.5000000   0.1666667  -0.5000000), wk =   0.0370370
        k(   38) = (   0.1666667  -0.5000000  -0.5000000), wk =   0.0370370
        k(   39) = (  -0.5000000   0.5000000  -0.1666667), wk =   0.0185185
        k(   40) = (  -0.5000000  -0.5000000   0.1666667), wk =   0.0370370
        k(   41) = (   0.5000000  -0.5000000  -0.1666667), wk =   0.0185185
        k(   42) = (   0.3333333   0.0000000  -0.3333333), wk =   0.0370370
        k(   43) = (  -0.3333333   0.3333333  -0.0000000), wk =   0.0185185
        k(   44) = (  -0.3333333  -0.3333333   0.0000000), wk =   0.0185185
        k(   45) = (   0.0000000   0.0000000   0.6666667), wk =   0.0185185
        k(   46) = (  -0.8333333  -0.1666667  -0.8333333), wk =   0.0370370
        k(   47) = (   0.8333333   0.1666667  -0.8333333), wk =   0.0370370
        k(   48) = (   0.1666667  -0.8333333  -0.8333333), wk =   0.0370370
        k(   49) = (  -0.8333333   0.8333333  -0.1666667), wk =   0.0185185
        k(   50) = (  -0.8333333  -0.8333333   0.1666667), wk =   0.0370370
        k(   51) = (   0.8333333  -0.8333333  -0.1666667), wk =   0.0185185
        k(   52) = (   0.6666667   0.0000000  -0.6666667), wk =   0.0370370
        k(   53) = (  -0.6666667   0.6666667   0.0000000), wk =   0.0185185
        k(   54) = (  -0.6666667  -0.6666667   0.0000000), wk =   0.0185185
        k(   55) = (   0.0000000   0.0000000  -1.0000000), wk =   0.0092593
        k(   56) = (  -0.6666667  -0.3333333  -1.0000000), wk =   0.0370370
        k(   57) = (   1.0000000   0.3333333   0.6666667), wk =   0.0370370
        k(   58) = (  -1.0000000   0.3333333  -0.6666667), wk =   0.0370370
        k(   59) = (  -0.6666667   1.0000000  -0.3333333), wk =   0.0370370
        k(   60) = (  -0.6666667  -1.0000000   0.3333333), wk =   0.0370370
        k(   61) = (  -0.5000000  -0.1666667  -0.8333333), wk =   0.0370370
        k(   62) = (   0.5000000   0.1666667  -0.8333333), wk =   0.0370370
        k(   63) = (   0.1666667  -0.5000000  -0.8333333), wk =   0.0370370
        k(   64) = (   0.8333333   0.1666667   0.5000000), wk =   0.0370370
        k(   65) = (  -0.8333333   0.1666667  -0.5000000), wk =   0.0185185
        k(   66) = (   0.8333333  -0.1666667  -0.5000000), wk =   0.0185185
        k(   67) = (   0.0000000   1.0000000  -0.3333333), wk =   0.0370370
        k(   68) = (   0.3333333   0.0000000  -1.0000000), wk =   0.0370370

     Dense  grid:    75089 G-vectors     FFT dimensions: (  60,  60,  60)

     Smooth grid:    14331 G-vectors     FFT dimensions: (  36,  36,  36)

     Estimated max dynamical RAM per process >     291.13 MB

     Initial potential from superposition of free atoms

     starting charge       7.9996, renormalised to       8.0000
     Starting wfcs are    8 randomized atomic wfcs

     total cpu time spent up to now is        6.0 secs

     Self-consistent Calculation

     iteration #  1     ecut=    70.00 Ry     beta= 0.70
     CG style diagonalization
     ethr =  1.00E-02,  avg # of iterations =  2.7

     total cpu time spent up to now is       10.7 secs

     total energy              =     -46.12999059 Ry
     estimated scf accuracy    <       0.15062021 Ry

     iteration #  2     ecut=    70.00 Ry     beta= 0.70
     CG style diagonalization
     ethr =  1.88E-03,  avg # of iterations =  4.2

     total cpu time spent up to now is       16.5 secs

     total energy              =     -46.16421055 Ry
     estimated scf accuracy    <       0.04236642 Ry

     iteration #  3     ecut=    70.00 Ry     beta= 0.70
     CG style diagonalization
     ethr =  5.30E-04,  avg # of iterations =  4.1

     total cpu time spent up to now is       22.3 secs

     total energy              =     -46.17353454 Ry
     estimated scf accuracy    <       0.00040888 Ry

     iteration #  4     ecut=    70.00 Ry     beta= 0.70
     CG style diagonalization
     ethr =  5.11E-06,  avg # of iterations =  5.1

     total cpu time spent up to now is       29.1 secs

     total energy              =     -46.17390838 Ry
     estimated scf accuracy    <       0.00016788 Ry

     iteration #  5     ecut=    70.00 Ry     beta= 0.70
     CG style diagonalization
     ethr =  2.10E-06,  avg # of iterations =  4.2

     total cpu time spent up to now is       35.0 secs

     total energy              =     -46.17395709 Ry
     estimated scf accuracy    <       0.00001211 Ry

     iteration #  6     ecut=    70.00 Ry     beta= 0.70
     CG style diagonalization
     ethr =  1.51E-07,  avg # of iterations =  5.0

     total cpu time spent up to now is       41.7 secs

     total energy              =     -46.17396505 Ry
     estimated scf accuracy    <       0.00000023 Ry

     iteration #  7     ecut=    70.00 Ry     beta= 0.70
     CG style diagonalization
     ethr =  2.82E-09,  avg # of iterations =  6.4

     total cpu time spent up to now is       49.9 secs

     total energy              =     -46.17396585 Ry
     estimated scf accuracy    <       0.00000008 Ry

     iteration #  8     ecut=    70.00 Ry     beta= 0.70
     CG style diagonalization
     ethr =  1.00E-09,  avg # of iterations =  4.0

     total cpu time spent up to now is       55.6 secs

     total energy              =     -46.17396585 Ry
     estimated scf accuracy    <       0.00000004 Ry

     iteration #  9     ecut=    70.00 Ry     beta= 0.70
     CG style diagonalization
     ethr =  4.62E-10,  avg # of iterations =  3.1

     total cpu time spent up to now is       60.5 secs

     End of self-consistent calculation

          k = 0.0000 0.0000 0.0000 (  1807 PWs)   bands (ev):

    -7.0179   7.3311   8.5551   9.7018

          k =-0.1667 0.1667-0.1667 (  1820 PWs)   bands (ev):

    -6.5580   4.9026   7.6929   8.5131

          k =-0.3333 0.3333-0.3333 (  1820 PWs)   bands (ev):

    -5.2535   1.2779   6.7203   7.5100

          k = 0.5000-0.5000 0.5000 (  1802 PWs)   bands (ev):

    -3.9891  -0.8398   6.3721   7.1751

          k = 0.0000 0.3333 0.0000 (  1800 PWs)   bands (ev):

    -6.4136   5.7364   6.6325   7.3000

          k =-0.1667 0.5000-0.1667 (  1804 PWs)   bands (ev):

    -5.3838   2.5632   5.8049   6.3716

          k = 0.6667-0.3333 0.6667 (  1795 PWs)   bands (ev):

    -3.8682  -0.2143   4.7836   6.2146

          k = 0.5000-0.1667 0.5000 (  1800 PWs)   bands (ev):

    -4.3447   0.5028   4.4263   6.9571

          k = 0.3333-0.0000 0.3333 (  1817 PWs)   bands (ev):

    -5.8170   3.4020   5.2026   8.2787

          k = 0.0000 0.6667 0.0000 (  1804 PWs)   bands (ev):

    -4.6927   2.4942   4.7601   5.3036

          k = 0.8333-0.1667 0.8333 (  1791 PWs)   bands (ev):

    -3.3875   0.5841   3.3408   5.0709

          k = 0.6667-0.0000 0.6667 (  1798 PWs)   bands (ev):

    -3.1528   0.3639   2.2320   5.7591

          k = 0.0000-1.0000 0.0000 (  1772 PWs)   bands (ev):

    -2.9206   0.0357   4.1383   4.6371

          k = 0.6667-0.3333 1.0000 (  1806 PWs)   bands (ev):

    -4.2388   1.6557   3.6258   5.2514

          k = 0.5000-0.1667 0.8333 (  1792 PWs)   bands (ev):

    -3.1211  -0.0026   3.2987   4.6629

          k =-0.3333-1.0000 0.0000 (  1786 PWs)   bands (ev):

    -2.7992   0.3628   3.0923   3.6796

          k = 0.1667 0.1667 0.1667 (  1820 PWs)   bands (ev):

    -6.5658   5.3874   7.1001   8.6506

          k =-0.1667 0.1667 0.1667 (  1820 PWs)   bands (ev):

    -6.5737   5.9203   7.0251   7.9891

          k = 0.3333 0.3333 0.3333 (  1820 PWs)   bands (ev):

    -5.3056   1.6895   6.2573   7.7766

          k =-0.3333 0.3333 0.3333 (  1820 PWs)   bands (ev):

    -5.3555   2.1015   6.3118   7.2776

          k =-0.5000-0.5000-0.5000 (  1802 PWs)   bands (ev):

    -4.1705  -0.3332   5.9515   7.4872

          k = 0.5000-0.5000-0.5000 (  1802 PWs)   bands (ev):

    -4.3189   0.1419   6.0495   7.0178

          k = 0.0000 0.0000 0.3333 (  1800 PWs)   bands (ev):

    -6.4138   5.5701   6.7687   7.4068

          k = 0.1667 0.5000 0.1667 (  1804 PWs)   bands (ev):

    -5.4151   3.1534   5.1357   6.4250

          k =-0.1667-0.5000 0.1667 (  1804 PWs)   bands (ev):

    -5.3990   2.7989   5.4904   6.5747

          k =-0.5000 0.1667 0.1667 (  1804 PWs)   bands (ev):

    -5.4300   3.3384   5.4004   6.0168

          k = 0.1667-0.1667 0.5000 (  1804 PWs)   bands (ev):

    -5.3756   2.4153   5.8434   6.5990

          k = 0.1667 0.1667-0.5000 (  1804 PWs)   bands (ev):

    -5.4072   2.8992   5.4127   6.5233

          k =-0.1667 0.1667 0.5000 (  1804 PWs)   bands (ev):

    -5.4379   3.5506   5.0976   6.0648

          k =-0.6667-0.3333-0.6667 (  1795 PWs)   bands (ev):

    -4.0100   0.3146   4.2891   6.3873

          k = 0.6667 0.3333-0.6667 (  1795 PWs)   bands (ev):

    -4.0011   0.2078   5.0891   5.6684

          k = 0.3333-0.6667-0.6667 (  1795 PWs)   bands (ev):

    -4.1229   0.7187   4.6705   5.6882

          k =-0.6667 0.6667-0.3333 (  1795 PWs)   bands (ev):

    -3.8615  -0.2669   5.3166   5.7215

          k =-0.6667-0.6667 0.3333 (  1795 PWs)   bands (ev):

    -4.0047   0.2494   4.5487   6.2357

          k = 0.6667-0.6667-0.3333 (  1795 PWs)   bands (ev):

    -4.1259   0.7748   4.2657   6.0474

          k =-0.5000-0.1667-0.5000 (  1800 PWs)   bands (ev):

    -4.4106   0.8767   4.0568   7.1307

          k = 0.5000 0.1667-0.5000 (  1800 PWs)   bands (ev):

    -4.4652   1.0584   4.7194   6.0839

          k = 0.1667-0.5000-0.5000 (  1800 PWs)   bands (ev):

    -4.5232   1.4595   4.3059   6.1988

          k =-0.5000 0.5000-0.1667 (  1800 PWs)   bands (ev):

    -4.3740   0.5870   4.7805   6.4063

          k =-0.5000-0.5000 0.1667 (  1800 PWs)   bands (ev):

    -4.4385   0.9889   4.2206   6.8124

          k = 0.5000-0.5000-0.1667 (  1800 PWs)   bands (ev):

    -4.4976   1.3616   3.9857   6.7010

          k = 0.3333 0.0000-0.3333 (  1817 PWs)   bands (ev):

    -5.8525   4.3210   5.1052   7.0450

          k =-0.3333 0.3333-0.0000 (  1817 PWs)   bands (ev):

    -5.8349   3.7500   5.2523   7.6174

          k =-0.3333-0.3333 0.0000 (  1817 PWs)   bands (ev):

    -5.8347   3.9671   4.8780   7.8910

          k = 0.0000 0.0000 0.6667 (  1804 PWs)   bands (ev):

    -4.6918   2.3742   4.9968   5.2502

          k =-0.8333-0.1667-0.8333 (  1791 PWs)   bands (ev):

    -3.4539   0.9711   2.9635   5.1069

          k = 0.8333 0.1667-0.8333 (  1791 PWs)   bands (ev):

    -3.4393   0.7030   3.8467   4.5343

          k = 0.1667-0.8333-0.8333 (  1791 PWs)   bands (ev):

    -3.5006   1.0312   3.5167   4.5596

          k =-0.8333 0.8333-0.1667 (  1791 PWs)   bands (ev):

    -3.3725   0.4079   3.8640   4.7565

          k =-0.8333-0.8333 0.1667 (  1791 PWs)   bands (ev):

    -3.4406   0.7444   3.3848   4.9958

          k = 0.8333-0.8333-0.1667 (  1791 PWs)   bands (ev):

    -3.5016   1.0812   3.1890   4.8259

          k = 0.6667 0.0000-0.6667 (  1798 PWs)   bands (ev):

    -3.3429   0.9542   2.4522   5.0979

          k =-0.6667 0.6667 0.0000 (  1798 PWs)   bands (ev):

    -3.2472   0.5712   2.4354   5.4080

          k =-0.6667-0.6667 0.0000 (  1798 PWs)   bands (ev):

    -3.2514   0.6810   2.2296   5.6011

          k = 0.0000 0.0000-1.0000 (  1772 PWs)   bands (ev):

    -2.9030  -0.0606   4.3687   4.5469

          k =-0.6667-0.3333-1.0000 (  1806 PWs)   bands (ev):

    -4.2395   1.7635   3.3651   5.4491

          k = 1.0000 0.3333 0.6667 (  1806 PWs)   bands (ev):

    -4.2867   2.1587   3.4722   4.8797

          k =-1.0000 0.3333-0.6667 (  1806 PWs)   bands (ev):

    -4.1897   1.3515   3.5476   5.6694

          k =-0.6667 1.0000-0.3333 (  1806 PWs)   bands (ev):

    -4.1883   1.3022   3.5870   5.7125

          k =-0.6667-1.0000 0.3333 (  1806 PWs)   bands (ev):

    -4.2855   2.0580   3.5827   4.8952

          k =-0.5000-0.1667-0.8333 (  1792 PWs)   bands (ev):

    -3.2179   0.4622   2.6071   5.0559

          k = 0.5000 0.1667-0.8333 (  1792 PWs)   bands (ev):

    -3.2706   0.4704   3.3793   4.2560

          k = 0.1667-0.5000-0.8333 (  1792 PWs)   bands (ev):

    -3.3472   0.9338   2.7018   4.5523

          k = 0.8333 0.1667 0.5000 (  1792 PWs)   bands (ev):

    -3.2474   0.4858   2.9381   4.6610

          k =-0.8333 0.1667-0.5000 (  1792 PWs)   bands (ev):

    -3.0957   0.0096   2.9229   5.0299

          k = 0.8333-0.1667-0.5000 (  1792 PWs)   bands (ev):

    -3.3740   0.9617   3.1455   4.0694

          k = 0.0000 1.0000-0.3333 (  1786 PWs)   bands (ev):

    -2.8032   0.3930   3.0470   3.6898

          k = 0.3333 0.0000-1.0000 (  1786 PWs)   bands (ev):

    -2.7893   0.2902   3.2565   3.5968

     highest occupied level (ev):     9.7018

!    total energy              =     -46.17396585 Ry
     estimated scf accuracy    <          2.2E-09 Ry

     The total energy is the sum of the following terms:
     one-electron contribution =       6.69025120 Ry
     hartree contribution      =       1.24751080 Ry
     xc contribution           =     -34.15305065 Ry
     ewald contribution        =     -19.95867719 Ry

     convergence has been achieved in   9 iterations

     Forces acting on atoms (cartesian axes, Ry/au):

     atom    1 type  1   force =    -0.07834373    0.07834373   -0.02687806
     atom    2 type  2   force =     0.07834373   -0.07834373    0.02687806

     Total force =     0.161232     Total SCF correction =     0.000004


     Computing stress (Cartesian axis) and pressure

          total   stress  (Ry/bohr**3)                   (kbar)     P=        6.03
   0.00001088  -0.00015948   0.00036162            1.60      -23.46       53.20
  -0.00015948   0.00001088  -0.00036162          -23.46        1.60      -53.20
   0.00036162  -0.00036162   0.00010122           53.20      -53.20       14.89


     Writing all to output data dir ./z-70.save/
 
     init_run     :      4.37s CPU      4.74s WALL (       1 calls)
     electrons    :     50.82s CPU     54.51s WALL (       1 calls)
     forces       :      0.89s CPU      0.97s WALL (       1 calls)
     stress       :      7.24s CPU      7.43s WALL (       1 calls)

     Called by init_run:
     wfcinit      :      1.87s CPU      2.00s WALL (       1 calls)
     potinit      :      0.08s CPU      0.11s WALL (       1 calls)
     hinit0       :      1.87s CPU      1.97s WALL (       1 calls)

     Called by electrons:
     c_bands      :     36.78s CPU     39.15s WALL (       9 calls)
     sum_band     :      9.75s CPU     10.40s WALL (       9 calls)
     v_of_rho     :      0.55s CPU      0.62s WALL (      10 calls)
     newd         :      3.96s CPU      4.51s WALL (      10 calls)
     mix_rho      :      0.14s CPU      0.15s WALL (       9 calls)

     Called by c_bands:
     init_us_2    :      3.32s CPU      3.45s WALL (    1428 calls)
     init_us_2:cp :      3.28s CPU      3.43s WALL (    1428 calls)
     ccgdiagg     :     28.93s CPU     30.88s WALL (     612 calls)
     wfcrot       :      7.77s CPU      8.11s WALL (     612 calls)

     Called by *cgdiagg:
     h_psi        :     30.77s CPU     32.25s WALL (    8978 calls)
     s_psi        :      2.33s CPU      2.75s WALL (   17344 calls)

     Called by h_psi:
     h_psi:calbec :      1.77s CPU      1.89s WALL (    8978 calls)
     vloc_psi     :     26.99s CPU     28.19s WALL (    8978 calls)
     add_vuspsi   :      1.39s CPU      1.57s WALL (    8978 calls)
     hs_1psi      :     25.31s CPU     26.70s WALL (    8366 calls)
     s_1psi       :      2.60s CPU      2.96s WALL (    8366 calls)

     General routines
     calbec       :      2.85s CPU      3.26s WALL (   18296 calls)
     fft          :      0.32s CPU      0.35s WALL (      66 calls)
     ffts         :      0.02s CPU      0.02s WALL (      19 calls)
     fftw         :     25.24s CPU     26.31s WALL (   24620 calls)
     interpolate  :      0.07s CPU      0.11s WALL (      10 calls)
 
     Parallel routines
 
     PWSCF        :   1m 4.22s CPU   1m 9.93s WALL

 
   This run was terminated on:  17:28:38  17Feb2022            

=------------------------------------------------------------------------------=
   JOB DONE.
=------------------------------------------------------------------------------=
