
     Program PWSCF v.7.0 starts on 17Feb2022 at 17:59: 6 

     This program is part of the open-source Quantum ESPRESSO suite
     for quantum simulation of materials; please cite
         "P. Giannozzi et al., J. Phys.:Condens. Matter 21 395502 (2009);
         "P. Giannozzi et al., J. Phys.:Condens. Matter 29 465901 (2017);
         "P. Giannozzi et al., J. Chem. Phys. 152 154105 (2020);
          URL http://www.quantum-espresso.org", 
     in publications or presentations arising from this work. More details at
     http://www.quantum-espresso.org/quote

     Parallel version (MPI), running on     1 processors

     MPI processes distributed on     1 nodes
     89934 MiB available memory on the printing compute node when the environment starts
 
     Waiting for input...
     Reading input from standard input
Warning: card &CELL ignored
Warning: card  CELL_DYNAMICS = 'BFGS', ignored
Warning: card  PRESS=0.1D0, ignored
Warning: card / ignored

     Current dimensions of program PWSCF are:
     Max number of different atomic species (ntypx) = 10
     Max number of k-points (npk) =  40000
     Max angular momentum in pseudopotentials (lmaxx) =  4

     Subspace diagonalization in iterative solution of the eigenvalue problem:
     a serial algorithm will be used

 
     G-vector sticks info
     --------------------
     sticks:   dense  smooth     PW     G-vecs:    dense   smooth      PW
     Sum        3013    1003    301               109003    20875    3479
 
     Using Slab Decomposition
 


     bravais-lattice index     =            2
     lattice parameter (alat)  =       9.0000  a.u.
     unit-cell volume          =     182.2500 (a.u.)^3
     number of atoms/cell      =            2
     number of atomic types    =            2
     number of electrons       =         8.00
     number of Kohn-Sham states=            4
     kinetic-energy cutoff     =      90.0000  Ry
     charge density cutoff     =    1080.0000  Ry
     scf convergence threshold =      1.0E-08
     mixing beta               =       0.7000
     number of iterations used =            8  plain     mixing
     Exchange-correlation= SLA  PZ   NOGX NOGC
                           (   1   1   0   0   0   0   0)

     celldm(1)=   9.000000  celldm(2)=   0.000000  celldm(3)=   0.000000
     celldm(4)=   0.000000  celldm(5)=   0.000000  celldm(6)=   0.000000

     crystal axes: (cart. coord. in units of alat)
               a(1) = (  -0.500000   0.000000   0.500000 )  
               a(2) = (   0.000000   0.500000   0.500000 )  
               a(3) = (  -0.500000   0.500000   0.000000 )  

     reciprocal axes: (cart. coord. in units 2 pi/alat)
               b(1) = ( -1.000000 -1.000000  1.000000 )  
               b(2) = (  1.000000  1.000000  1.000000 )  
               b(3) = ( -1.000000  1.000000 -1.000000 )  


     PseudoPot. # 1 for B  read from file:
     ./pseudo_dir/B_LDA.UPF
     MD5 check sum: a9970de764dbc07c3a3d9583c605c3b2
     Pseudo is Ultrasoft + core correction, Zval =  3.0
     Generated by new atomic code, or converted to UPF format
     Using radial grid of  781 points,  4 beta functions with: 
                l(1) =   0
                l(2) =   0
                l(3) =   1
                l(4) =   1
     Q(r) pseudized with  8 coefficients,  rinner =    1.100   1.100   1.100


     PseudoPot. # 2 for As read from file:
     ./pseudo_dir/As_LDA.UPF
     MD5 check sum: 6d2e8cbe4ed9d0db7c6ef7a361cc050d
     Pseudo is Ultrasoft + core correction, Zval =  5.0
     Generated by new atomic code, or converted to UPF format
     Using radial grid of  875 points,  6 beta functions with: 
                l(1) =   0
                l(2) =   0
                l(3) =   1
                l(4) =   1
                l(5) =   2
                l(6) =   2
     Q(r) pseudized with  8 coefficients,  rinner =    1.300   1.300   1.300
                                                       1.300   1.300

     atomic species   valence    mass     pseudopotential
        B              3.00    10.81100     B ( 1.00)
        As             5.00    74.92160     As( 1.00)

      2 Sym. Ops. (no inversion) found



   Cartesian axes

     site n.     atom                  positions (alat units)
         1           B   tau(   1) = (   0.0000000   0.0000000   0.0000000  )
         2           As  tau(   2) = (  -0.2750000   0.2750000   0.2500000  )

     number of k points=    68
                       cart. coord. in units 2pi/alat
        k(    1) = (   0.0000000   0.0000000   0.0000000), wk =   0.0092593
        k(    2) = (  -0.1666667   0.1666667  -0.1666667), wk =   0.0185185
        k(    3) = (  -0.3333333   0.3333333  -0.3333333), wk =   0.0185185
        k(    4) = (   0.5000000  -0.5000000   0.5000000), wk =   0.0092593
        k(    5) = (   0.0000000   0.3333333   0.0000000), wk =   0.0370370
        k(    6) = (  -0.1666667   0.5000000  -0.1666667), wk =   0.0370370
        k(    7) = (   0.6666667  -0.3333333   0.6666667), wk =   0.0370370
        k(    8) = (   0.5000000  -0.1666667   0.5000000), wk =   0.0370370
        k(    9) = (   0.3333333  -0.0000000   0.3333333), wk =   0.0370370
        k(   10) = (   0.0000000   0.6666667   0.0000000), wk =   0.0370370
        k(   11) = (   0.8333333  -0.1666667   0.8333333), wk =   0.0370370
        k(   12) = (   0.6666667  -0.0000000   0.6666667), wk =   0.0370370
        k(   13) = (   0.0000000  -1.0000000   0.0000000), wk =   0.0185185
        k(   14) = (   0.6666667  -0.3333333   1.0000000), wk =   0.0370370
        k(   15) = (   0.5000000  -0.1666667   0.8333333), wk =   0.0370370
        k(   16) = (  -0.3333333  -1.0000000   0.0000000), wk =   0.0370370
        k(   17) = (   0.1666667   0.1666667   0.1666667), wk =   0.0370370
        k(   18) = (  -0.1666667   0.1666667   0.1666667), wk =   0.0185185
        k(   19) = (   0.3333333   0.3333333   0.3333333), wk =   0.0370370
        k(   20) = (  -0.3333333   0.3333333   0.3333333), wk =   0.0185185
        k(   21) = (  -0.5000000  -0.5000000  -0.5000000), wk =   0.0185185
        k(   22) = (   0.5000000  -0.5000000  -0.5000000), wk =   0.0092593
        k(   23) = (   0.0000000   0.0000000   0.3333333), wk =   0.0185185
        k(   24) = (   0.1666667   0.5000000   0.1666667), wk =   0.0370370
        k(   25) = (  -0.1666667  -0.5000000   0.1666667), wk =   0.0370370
        k(   26) = (  -0.5000000   0.1666667   0.1666667), wk =   0.0370370
        k(   27) = (   0.1666667  -0.1666667   0.5000000), wk =   0.0185185
        k(   28) = (   0.1666667   0.1666667  -0.5000000), wk =   0.0370370
        k(   29) = (  -0.1666667   0.1666667   0.5000000), wk =   0.0185185
        k(   30) = (  -0.6666667  -0.3333333  -0.6666667), wk =   0.0370370
        k(   31) = (   0.6666667   0.3333333  -0.6666667), wk =   0.0370370
        k(   32) = (   0.3333333  -0.6666667  -0.6666667), wk =   0.0370370
        k(   33) = (  -0.6666667   0.6666667  -0.3333333), wk =   0.0185185
        k(   34) = (  -0.6666667  -0.6666667   0.3333333), wk =   0.0370370
        k(   35) = (   0.6666667  -0.6666667  -0.3333333), wk =   0.0185185
        k(   36) = (  -0.5000000  -0.1666667  -0.5000000), wk =   0.0370370
        k(   37) = (   0.5000000   0.1666667  -0.5000000), wk =   0.0370370
        k(   38) = (   0.1666667  -0.5000000  -0.5000000), wk =   0.0370370
        k(   39) = (  -0.5000000   0.5000000  -0.1666667), wk =   0.0185185
        k(   40) = (  -0.5000000  -0.5000000   0.1666667), wk =   0.0370370
        k(   41) = (   0.5000000  -0.5000000  -0.1666667), wk =   0.0185185
        k(   42) = (   0.3333333   0.0000000  -0.3333333), wk =   0.0370370
        k(   43) = (  -0.3333333   0.3333333  -0.0000000), wk =   0.0185185
        k(   44) = (  -0.3333333  -0.3333333   0.0000000), wk =   0.0185185
        k(   45) = (   0.0000000   0.0000000   0.6666667), wk =   0.0185185
        k(   46) = (  -0.8333333  -0.1666667  -0.8333333), wk =   0.0370370
        k(   47) = (   0.8333333   0.1666667  -0.8333333), wk =   0.0370370
        k(   48) = (   0.1666667  -0.8333333  -0.8333333), wk =   0.0370370
        k(   49) = (  -0.8333333   0.8333333  -0.1666667), wk =   0.0185185
        k(   50) = (  -0.8333333  -0.8333333   0.1666667), wk =   0.0370370
        k(   51) = (   0.8333333  -0.8333333  -0.1666667), wk =   0.0185185
        k(   52) = (   0.6666667   0.0000000  -0.6666667), wk =   0.0370370
        k(   53) = (  -0.6666667   0.6666667   0.0000000), wk =   0.0185185
        k(   54) = (  -0.6666667  -0.6666667   0.0000000), wk =   0.0185185
        k(   55) = (   0.0000000   0.0000000  -1.0000000), wk =   0.0092593
        k(   56) = (  -0.6666667  -0.3333333  -1.0000000), wk =   0.0370370
        k(   57) = (   1.0000000   0.3333333   0.6666667), wk =   0.0370370
        k(   58) = (  -1.0000000   0.3333333  -0.6666667), wk =   0.0370370
        k(   59) = (  -0.6666667   1.0000000  -0.3333333), wk =   0.0370370
        k(   60) = (  -0.6666667  -1.0000000   0.3333333), wk =   0.0370370
        k(   61) = (  -0.5000000  -0.1666667  -0.8333333), wk =   0.0370370
        k(   62) = (   0.5000000   0.1666667  -0.8333333), wk =   0.0370370
        k(   63) = (   0.1666667  -0.5000000  -0.8333333), wk =   0.0370370
        k(   64) = (   0.8333333   0.1666667   0.5000000), wk =   0.0370370
        k(   65) = (  -0.8333333   0.1666667  -0.5000000), wk =   0.0185185
        k(   66) = (   0.8333333  -0.1666667  -0.5000000), wk =   0.0185185
        k(   67) = (   0.0000000   1.0000000  -0.3333333), wk =   0.0370370
        k(   68) = (   0.3333333   0.0000000  -1.0000000), wk =   0.0370370

     Dense  grid:   109003 G-vectors     FFT dimensions: (  72,  72,  72)

     Smooth grid:    20875 G-vectors     FFT dimensions: (  40,  40,  40)

     Estimated max dynamical RAM per process >     425.30 MB

     Initial potential from superposition of free atoms

     starting charge       7.9996, renormalised to       8.0000
     Starting wfcs are    8 randomized atomic wfcs

     total cpu time spent up to now is        7.4 secs

     Self-consistent Calculation

     iteration #  1     ecut=    90.00 Ry     beta= 0.70
     CG style diagonalization
     ethr =  1.00E-02,  avg # of iterations =  2.7

     total cpu time spent up to now is       13.8 secs

     total energy              =     -46.13002353 Ry
     estimated scf accuracy    <       0.15076528 Ry

     iteration #  2     ecut=    90.00 Ry     beta= 0.70
     CG style diagonalization
     ethr =  1.88E-03,  avg # of iterations =  4.2

     total cpu time spent up to now is       21.9 secs

     total energy              =     -46.16427833 Ry
     estimated scf accuracy    <       0.04233352 Ry

     iteration #  3     ecut=    90.00 Ry     beta= 0.70
     CG style diagonalization
     ethr =  5.29E-04,  avg # of iterations =  4.1

     total cpu time spent up to now is       29.9 secs

     total energy              =     -46.17360232 Ry
     estimated scf accuracy    <       0.00040842 Ry

     iteration #  4     ecut=    90.00 Ry     beta= 0.70
     CG style diagonalization
     ethr =  5.11E-06,  avg # of iterations =  5.1

     total cpu time spent up to now is       39.3 secs

     total energy              =     -46.17397553 Ry
     estimated scf accuracy    <       0.00016731 Ry

     iteration #  5     ecut=    90.00 Ry     beta= 0.70
     CG style diagonalization
     ethr =  2.09E-06,  avg # of iterations =  4.2

     total cpu time spent up to now is       47.5 secs

     total energy              =     -46.17402506 Ry
     estimated scf accuracy    <       0.00001223 Ry

     iteration #  6     ecut=    90.00 Ry     beta= 0.70
     CG style diagonalization
     ethr =  1.53E-07,  avg # of iterations =  5.2

     total cpu time spent up to now is       57.0 secs

     total energy              =     -46.17403339 Ry
     estimated scf accuracy    <       0.00000022 Ry

     iteration #  7     ecut=    90.00 Ry     beta= 0.70
     CG style diagonalization
     ethr =  2.81E-09,  avg # of iterations =  6.3

     total cpu time spent up to now is       67.9 secs

     total energy              =     -46.17403415 Ry
     estimated scf accuracy    <       0.00000009 Ry

     iteration #  8     ecut=    90.00 Ry     beta= 0.70
     CG style diagonalization
     ethr =  1.18E-09,  avg # of iterations =  3.9

     total cpu time spent up to now is       75.7 secs

     total energy              =     -46.17403416 Ry
     estimated scf accuracy    <       0.00000003 Ry

     iteration #  9     ecut=    90.00 Ry     beta= 0.70
     CG style diagonalization
     ethr =  4.36E-10,  avg # of iterations =  3.3

     total cpu time spent up to now is       82.5 secs

     End of self-consistent calculation

          k = 0.0000 0.0000 0.0000 (  2685 PWs)   bands (ev):

    -7.0180   7.3309   8.5549   9.7015

          k =-0.1667 0.1667-0.1667 (  2644 PWs)   bands (ev):

    -6.5581   4.9024   7.6926   8.5129

          k =-0.3333 0.3333-0.3333 (  2641 PWs)   bands (ev):

    -5.2536   1.2777   6.7201   7.5098

          k = 0.5000-0.5000 0.5000 (  2608 PWs)   bands (ev):

    -3.9892  -0.8399   6.3719   7.1749

          k = 0.0000 0.3333 0.0000 (  2637 PWs)   bands (ev):

    -6.4137   5.7362   6.6323   7.2998

          k =-0.1667 0.5000-0.1667 (  2632 PWs)   bands (ev):

    -5.3839   2.5630   5.8047   6.3714

          k = 0.6667-0.3333 0.6667 (  2616 PWs)   bands (ev):

    -3.8684  -0.2144   4.7834   6.2143

          k = 0.5000-0.1667 0.5000 (  2629 PWs)   bands (ev):

    -4.3448   0.5027   4.4261   6.9569

          k = 0.3333-0.0000 0.3333 (  2643 PWs)   bands (ev):

    -5.8171   3.4018   5.2024   8.2784

          k = 0.0000 0.6667 0.0000 (  2626 PWs)   bands (ev):

    -4.6929   2.4940   4.7599   5.3034

          k = 0.8333-0.1667 0.8333 (  2618 PWs)   bands (ev):

    -3.3877   0.5839   3.3407   5.0707

          k = 0.6667-0.0000 0.6667 (  2612 PWs)   bands (ev):

    -3.1529   0.3637   2.2319   5.7589

          k = 0.0000-1.0000 0.0000 (  2586 PWs)   bands (ev):

    -2.9208   0.0356   4.1381   4.6369

          k = 0.6667-0.3333 1.0000 (  2644 PWs)   bands (ev):

    -4.2389   1.6556   3.6256   5.2512

          k = 0.5000-0.1667 0.8333 (  2628 PWs)   bands (ev):

    -3.1213  -0.0027   3.2985   4.6627

          k =-0.3333-1.0000 0.0000 (  2614 PWs)   bands (ev):

    -2.7994   0.3627   3.0921   3.6795

          k = 0.1667 0.1667 0.1667 (  2644 PWs)   bands (ev):

    -6.5659   5.3872   7.0999   8.6504

          k =-0.1667 0.1667 0.1667 (  2644 PWs)   bands (ev):

    -6.5738   5.9201   7.0249   7.9888

          k = 0.3333 0.3333 0.3333 (  2641 PWs)   bands (ev):

    -5.3058   1.6893   6.2571   7.7764

          k =-0.3333 0.3333 0.3333 (  2641 PWs)   bands (ev):

    -5.3557   2.1013   6.3116   7.2773

          k =-0.5000-0.5000-0.5000 (  2608 PWs)   bands (ev):

    -4.1707  -0.3333   5.9513   7.4870

          k = 0.5000-0.5000-0.5000 (  2608 PWs)   bands (ev):

    -4.3190   0.1417   6.0493   7.0175

          k = 0.0000 0.0000 0.3333 (  2637 PWs)   bands (ev):

    -6.4139   5.5699   6.7685   7.4066

          k = 0.1667 0.5000 0.1667 (  2632 PWs)   bands (ev):

    -5.4152   3.1533   5.1355   6.4248

          k =-0.1667-0.5000 0.1667 (  2632 PWs)   bands (ev):

    -5.3992   2.7988   5.4901   6.5744

          k =-0.5000 0.1667 0.1667 (  2632 PWs)   bands (ev):

    -5.4301   3.3383   5.4002   6.0166

          k = 0.1667-0.1667 0.5000 (  2632 PWs)   bands (ev):

    -5.3757   2.4151   5.8432   6.5987

          k = 0.1667 0.1667-0.5000 (  2632 PWs)   bands (ev):

    -5.4073   2.8990   5.4125   6.5231

          k =-0.1667 0.1667 0.5000 (  2632 PWs)   bands (ev):

    -5.4380   3.5505   5.0974   6.0646

          k =-0.6667-0.3333-0.6667 (  2616 PWs)   bands (ev):

    -4.0102   0.3144   4.2889   6.3870

          k = 0.6667 0.3333-0.6667 (  2616 PWs)   bands (ev):

    -4.0012   0.2077   5.0889   5.6682

          k = 0.3333-0.6667-0.6667 (  2616 PWs)   bands (ev):

    -4.1230   0.7185   4.6703   5.6880

          k =-0.6667 0.6667-0.3333 (  2616 PWs)   bands (ev):

    -3.8617  -0.2670   5.3164   5.7213

          k =-0.6667-0.6667 0.3333 (  2616 PWs)   bands (ev):

    -4.0048   0.2493   4.5485   6.2355

          k = 0.6667-0.6667-0.3333 (  2616 PWs)   bands (ev):

    -4.1261   0.7747   4.2655   6.0472

          k =-0.5000-0.1667-0.5000 (  2629 PWs)   bands (ev):

    -4.4108   0.8766   4.0566   7.1305

          k = 0.5000 0.1667-0.5000 (  2629 PWs)   bands (ev):

    -4.4653   1.0582   4.7192   6.0837

          k = 0.1667-0.5000-0.5000 (  2629 PWs)   bands (ev):

    -4.5234   1.4593   4.3057   6.1986

          k =-0.5000 0.5000-0.1667 (  2629 PWs)   bands (ev):

    -4.3741   0.5869   4.7804   6.4061

          k =-0.5000-0.5000 0.1667 (  2629 PWs)   bands (ev):

    -4.4386   0.9888   4.2204   6.8122

          k = 0.5000-0.5000-0.1667 (  2629 PWs)   bands (ev):

    -4.4978   1.3614   3.9855   6.7008

          k = 0.3333 0.0000-0.3333 (  2643 PWs)   bands (ev):

    -5.8527   4.3208   5.1050   7.0448

          k =-0.3333 0.3333-0.0000 (  2643 PWs)   bands (ev):

    -5.8350   3.7498   5.2521   7.6172

          k =-0.3333-0.3333 0.0000 (  2643 PWs)   bands (ev):

    -5.8348   3.9670   4.8778   7.8907

          k = 0.0000 0.0000 0.6667 (  2626 PWs)   bands (ev):

    -4.6919   2.3740   4.9966   5.2500

          k =-0.8333-0.1667-0.8333 (  2618 PWs)   bands (ev):

    -3.4540   0.9709   2.9633   5.1067

          k = 0.8333 0.1667-0.8333 (  2618 PWs)   bands (ev):

    -3.4395   0.7028   3.8466   4.5340

          k = 0.1667-0.8333-0.8333 (  2618 PWs)   bands (ev):

    -3.5008   1.0311   3.5165   4.5594

          k =-0.8333 0.8333-0.1667 (  2618 PWs)   bands (ev):

    -3.3727   0.4078   3.8639   4.7563

          k =-0.8333-0.8333 0.1667 (  2618 PWs)   bands (ev):

    -3.4407   0.7442   3.3847   4.9956

          k = 0.8333-0.8333-0.1667 (  2618 PWs)   bands (ev):

    -3.5017   1.0811   3.1888   4.8257

          k = 0.6667 0.0000-0.6667 (  2612 PWs)   bands (ev):

    -3.3430   0.9541   2.4521   5.0977

          k =-0.6667 0.6667 0.0000 (  2612 PWs)   bands (ev):

    -3.2474   0.5711   2.4353   5.4078

          k =-0.6667-0.6667 0.0000 (  2612 PWs)   bands (ev):

    -3.2515   0.6809   2.2294   5.6009

          k = 0.0000 0.0000-1.0000 (  2586 PWs)   bands (ev):

    -2.9032  -0.0607   4.3685   4.5467

          k =-0.6667-0.3333-1.0000 (  2644 PWs)   bands (ev):

    -4.2396   1.7633   3.3650   5.4489

          k = 1.0000 0.3333 0.6667 (  2644 PWs)   bands (ev):

    -4.2869   2.1585   3.4720   4.8795

          k =-1.0000 0.3333-0.6667 (  2644 PWs)   bands (ev):

    -4.1898   1.3513   3.5475   5.6692

          k =-0.6667 1.0000-0.3333 (  2644 PWs)   bands (ev):

    -4.1884   1.3020   3.5869   5.7123

          k =-0.6667-1.0000 0.3333 (  2644 PWs)   bands (ev):

    -4.2857   2.0578   3.5826   4.8950

          k =-0.5000-0.1667-0.8333 (  2628 PWs)   bands (ev):

    -3.2180   0.4621   2.6069   5.0557

          k = 0.5000 0.1667-0.8333 (  2628 PWs)   bands (ev):

    -3.2708   0.4703   3.3792   4.2558

          k = 0.1667-0.5000-0.8333 (  2628 PWs)   bands (ev):

    -3.3474   0.9337   2.7016   4.5521

          k = 0.8333 0.1667 0.5000 (  2628 PWs)   bands (ev):

    -3.2476   0.4857   2.9379   4.6608

          k =-0.8333 0.1667-0.5000 (  2628 PWs)   bands (ev):

    -3.0959   0.0095   2.9227   5.0297

          k = 0.8333-0.1667-0.5000 (  2628 PWs)   bands (ev):

    -3.3742   0.9615   3.1453   4.0692

          k = 0.0000 1.0000-0.3333 (  2614 PWs)   bands (ev):

    -2.8033   0.3929   3.0468   3.6896

          k = 0.3333 0.0000-1.0000 (  2614 PWs)   bands (ev):

    -2.7895   0.2900   3.2563   3.5966

     highest occupied level (ev):     9.7015

!    total energy              =     -46.17403417 Ry
     estimated scf accuracy    <          3.4E-09 Ry

     The total energy is the sum of the following terms:
     one-electron contribution =       6.68984904 Ry
     hartree contribution      =       1.24749101 Ry
     xc contribution           =     -34.15269702 Ry
     ewald contribution        =     -19.95867719 Ry

     convergence has been achieved in   9 iterations

     Forces acting on atoms (cartesian axes, Ry/au):

     atom    1 type  1   force =    -0.07833051    0.07833051   -0.02687032
     atom    2 type  2   force =     0.07833051   -0.07833051    0.02687032

     Total force =     0.161204     Total SCF correction =     0.000007


     Computing stress (Cartesian axis) and pressure

          total   stress  (Ry/bohr**3)                   (kbar)     P=        6.23
   0.00001220  -0.00015965   0.00036163            1.79      -23.49       53.20
  -0.00015965   0.00001220  -0.00036163          -23.49        1.79      -53.20
   0.00036163  -0.00036163   0.00010255           53.20      -53.20       15.09


     Writing all to output data dir ./z-90.save/
 
     init_run     :      5.62s CPU      6.05s WALL (       1 calls)
     electrons    :     70.49s CPU     75.17s WALL (       1 calls)
     forces       :      1.29s CPU      1.39s WALL (       1 calls)
     stress       :     10.56s CPU     10.86s WALL (       1 calls)

     Called by init_run:
     wfcinit      :      2.60s CPU      2.74s WALL (       1 calls)
     potinit      :      0.13s CPU      0.18s WALL (       1 calls)
     hinit0       :      2.10s CPU      2.20s WALL (       1 calls)

     Called by electrons:
     c_bands      :     50.26s CPU     53.28s WALL (       9 calls)
     sum_band     :     13.78s CPU     14.63s WALL (       9 calls)
     v_of_rho     :      0.96s CPU      1.01s WALL (      10 calls)
     newd         :      5.78s CPU      6.54s WALL (      10 calls)
     mix_rho      :      0.21s CPU      0.23s WALL (       9 calls)

     Called by c_bands:
     init_us_2    :      4.89s CPU      5.02s WALL (    1428 calls)
     init_us_2:cp :      4.84s CPU      4.99s WALL (    1428 calls)
     ccgdiagg     :     39.51s CPU     42.05s WALL (     612 calls)
     wfcrot       :     10.50s CPU     10.92s WALL (     612 calls)

     Called by *cgdiagg:
     h_psi        :     41.19s CPU     43.01s WALL (    9018 calls)
     s_psi        :      3.83s CPU      4.49s WALL (   17424 calls)

     Called by h_psi:
     h_psi:calbec :      2.43s CPU      2.58s WALL (    9018 calls)
     vloc_psi     :     35.83s CPU     37.26s WALL (    9018 calls)
     add_vuspsi   :      2.21s CPU      2.51s WALL (    9018 calls)
     hs_1psi      :     33.99s CPU     35.77s WALL (    8406 calls)
     s_1psi       :      4.01s CPU      4.50s WALL (    8406 calls)

     General routines
     calbec       :      4.16s CPU      4.73s WALL (   18376 calls)
     fft          :      0.49s CPU      0.53s WALL (      66 calls)
     ffts         :      0.03s CPU      0.03s WALL (      19 calls)
     fftw         :     33.01s CPU     34.22s WALL (   24700 calls)
     interpolate  :      0.11s CPU      0.12s WALL (      10 calls)
 
     Parallel routines
 
     PWSCF        :   1m28.86s CPU   1m35.80s WALL

 
   This run was terminated on:  18: 0:42  17Feb2022            

=------------------------------------------------------------------------------=
   JOB DONE.
=------------------------------------------------------------------------------=
