
     Program PWSCF v.6.7MaX starts on 24Feb2022 at 10:15:25 

     This program is part of the open-source Quantum ESPRESSO suite
     for quantum simulation of materials; please cite
         "P. Giannozzi et al., J. Phys.:Condens. Matter 21 395502 (2009);
         "P. Giannozzi et al., J. Phys.:Condens. Matter 29 465901 (2017);
          URL http://www.quantum-espresso.org", 
     in publications or presentations arising from this work. More details at
     http://www.quantum-espresso.org/quote

     Parallel version (MPI), running on     1 processors

     MPI processes distributed on     1 nodes
     Waiting for input...
     Reading input from standard input
Warning: card &CELL ignored
Warning: card 	CELL_DYNAMICS = 'BFGS' ignored
Warning: card / ignored

     Current dimensions of program PWSCF are:
     Max number of different atomic species (ntypx) = 10
     Max number of k-points (npk) =  40000
     Max angular momentum in pseudopotentials (lmaxx) =  3
     file Al.pbe-n-kjpaw_psl.1.0.0.UPF: wavefunction(s)  3S 3P renormalized

     Subspace diagonalization in iterative solution of the eigenvalue problem:
     a serial algorithm will be used


     G-vector sticks info
     --------------------
     sticks:   dense  smooth     PW     G-vecs:    dense   smooth      PW
     Sum         475     475    151                 6855     6855    1243



     bravais-lattice index     =            2
     lattice parameter (alat)  =       7.5980  a.u.
     unit-cell volume          =     109.6574 (a.u.)^3
     number of atoms/cell      =            1
     number of atomic types    =            1
     number of electrons       =         3.00
     number of Kohn-Sham states=            6
     kinetic-energy cutoff     =      60.0000  Ry
     charge density cutoff     =     240.0000  Ry
     scf convergence threshold =      1.0E-08
     mixing beta               =       0.7000
     number of iterations used =            8  plain     mixing
     Exchange-correlation= SLA  PW   PBX  PBC
                           (   1   4   3   4   0   0   0)

     celldm(1)=   7.598000  celldm(2)=   0.000000  celldm(3)=   0.000000
     celldm(4)=   0.000000  celldm(5)=   0.000000  celldm(6)=   0.000000

     crystal axes: (cart. coord. in units of alat)
               a(1) = (  -0.500000   0.000000   0.500000 )  
               a(2) = (   0.000000   0.500000   0.500000 )  
               a(3) = (  -0.500000   0.500000   0.000000 )  

     reciprocal axes: (cart. coord. in units 2 pi/alat)
               b(1) = ( -1.000000 -1.000000  1.000000 )  
               b(2) = (  1.000000  1.000000  1.000000 )  
               b(3) = ( -1.000000  1.000000 -1.000000 )  


     PseudoPot. # 1 for Al read from file:
     ./Al.pbe-n-kjpaw_psl.1.0.0.UPF
     MD5 check sum: 502b6b27b9c6270cab5dd1084b96fa6d
     Pseudo is Projector augmented-wave + core cor, Zval =  3.0
     Generated using &quot;atomic&quot; code by A. Dal Corso  v.6.3
     Shape of augmentation charge: PSQ
     Using radial grid of 1135 points,  6 beta functions with: 
                l(1) =   0
                l(2) =   0
                l(3) =   1
                l(4) =   1
                l(5) =   2
                l(6) =   2
     Q(r) pseudized with 0 coefficients 


     atomic species   valence    mass     pseudopotential
        Al             3.00    26.98100     Al( 1.00)

     48 Sym. Ops., with inversion, found



   Cartesian axes

     site n.     atom                  positions (alat units)
         1           Al  tau(   1) = (   0.0000000   0.0000000   0.0000000  )

     number of k points=    47  Methfessel-Paxton smearing, width (Ry)=  0.0500
                       cart. coord. in units 2pi/alat
        k(    1) = (   0.0000000   0.0000000   0.0000000), wk =   0.0020000
        k(    2) = (  -0.1000000   0.1000000  -0.1000000), wk =   0.0160000
        k(    3) = (  -0.2000000   0.2000000  -0.2000000), wk =   0.0160000
        k(    4) = (  -0.3000000   0.3000000  -0.3000000), wk =   0.0160000
        k(    5) = (  -0.4000000   0.4000000  -0.4000000), wk =   0.0160000
        k(    6) = (   0.5000000  -0.5000000   0.5000000), wk =   0.0080000
        k(    7) = (   0.0000000   0.2000000   0.0000000), wk =   0.0120000
        k(    8) = (  -0.1000000   0.3000000  -0.1000000), wk =   0.0480000
        k(    9) = (  -0.2000000   0.4000000  -0.2000000), wk =   0.0480000
        k(   10) = (  -0.3000000   0.5000000  -0.3000000), wk =   0.0480000
        k(   11) = (   0.6000000  -0.4000000   0.6000000), wk =   0.0480000
        k(   12) = (   0.5000000  -0.3000000   0.5000000), wk =   0.0480000
        k(   13) = (   0.4000000  -0.2000000   0.4000000), wk =   0.0480000
        k(   14) = (   0.3000000  -0.1000000   0.3000000), wk =   0.0480000
        k(   15) = (   0.2000000   0.0000000   0.2000000), wk =   0.0240000
        k(   16) = (   0.0000000   0.4000000   0.0000000), wk =   0.0120000
        k(   17) = (  -0.1000000   0.5000000  -0.1000000), wk =   0.0480000
        k(   18) = (  -0.2000000   0.6000000  -0.2000000), wk =   0.0480000
        k(   19) = (   0.7000000  -0.3000000   0.7000000), wk =   0.0480000
        k(   20) = (   0.6000000  -0.2000000   0.6000000), wk =   0.0480000
        k(   21) = (   0.5000000  -0.1000000   0.5000000), wk =   0.0480000
        k(   22) = (   0.4000000   0.0000000   0.4000000), wk =   0.0240000
        k(   23) = (   0.0000000   0.6000000   0.0000000), wk =   0.0120000
        k(   24) = (  -0.1000000   0.7000000  -0.1000000), wk =   0.0480000
        k(   25) = (   0.8000000  -0.2000000   0.8000000), wk =   0.0480000
        k(   26) = (   0.7000000  -0.1000000   0.7000000), wk =   0.0480000
        k(   27) = (   0.6000000  -0.0000000   0.6000000), wk =   0.0240000
        k(   28) = (   0.0000000   0.8000000   0.0000000), wk =   0.0120000
        k(   29) = (   0.9000000  -0.1000000   0.9000000), wk =   0.0480000
        k(   30) = (   0.8000000   0.0000000   0.8000000), wk =   0.0240000
        k(   31) = (   0.0000000  -1.0000000   0.0000000), wk =   0.0060000
        k(   32) = (  -0.2000000   0.4000000   0.0000000), wk =   0.0480000
        k(   33) = (  -0.3000000   0.5000000  -0.1000000), wk =   0.0960000
        k(   34) = (   0.6000000  -0.4000000   0.8000000), wk =   0.0960000
        k(   35) = (   0.5000000  -0.3000000   0.7000000), wk =   0.0480000
        k(   36) = (  -0.2000000   0.6000000   0.0000000), wk =   0.0480000
        k(   37) = (   0.7000000  -0.3000000   0.9000000), wk =   0.0960000
        k(   38) = (   0.6000000  -0.2000000   0.8000000), wk =   0.0960000
        k(   39) = (   0.5000000  -0.1000000   0.7000000), wk =   0.0960000
        k(   40) = (   0.4000000   0.0000000   0.6000000), wk =   0.0480000
        k(   41) = (   0.8000000  -0.2000000   1.0000000), wk =   0.0480000
        k(   42) = (   0.7000000  -0.1000000   0.9000000), wk =   0.0960000
        k(   43) = (   0.6000000   0.0000000   0.8000000), wk =   0.0480000
        k(   44) = (  -0.2000000  -1.0000000   0.0000000), wk =   0.0240000
        k(   45) = (   0.6000000  -0.2000000   1.0000000), wk =   0.0480000
        k(   46) = (   0.5000000  -0.1000000   0.9000000), wk =   0.0480000
        k(   47) = (  -0.4000000  -1.0000000   0.0000000), wk =   0.0240000

     Dense  grid:     6855 G-vectors     FFT dimensions: (  27,  27,  27)

     Estimated max dynamical RAM per process >      30.49 MB

     Initial potential from superposition of free atoms

     starting charge    2.99771, renormalised to    3.00000
     Starting wfcs are    4 randomized atomic wfcs +    2 random wfcs
     Checking if some PAW data can be deallocated... 

     total cpu time spent up to now is        0.9 secs

     Self-consistent Calculation

     iteration #  1     ecut=    60.00 Ry     beta= 0.70
     Davidson diagonalization with overlap
     ethr =  1.00E-02,  avg # of iterations =  6.1

     Threshold (ethr) on eigenvalues was too large:
     Diagonalizing with lowered threshold

     Davidson diagonalization with overlap
     ethr =  1.85E-04,  avg # of iterations =  3.4

     total cpu time spent up to now is        3.3 secs

     total energy              =     -39.50203561 Ry
     estimated scf accuracy    <       0.00544977 Ry

     iteration #  2     ecut=    60.00 Ry     beta= 0.70
     Davidson diagonalization with overlap
     ethr =  1.82E-04,  avg # of iterations =  1.0

     total cpu time spent up to now is        4.2 secs

     total energy              =     -39.50198941 Ry
     estimated scf accuracy    <       0.00039812 Ry

     iteration #  3     ecut=    60.00 Ry     beta= 0.70
     Davidson diagonalization with overlap
     c_bands:  1 eigenvalues not converged
     ethr =  1.33E-05,  avg # of iterations =  3.1

     total cpu time spent up to now is        5.1 secs

     total energy              =     -39.50199761 Ry
     estimated scf accuracy    <       0.00000051 Ry

     iteration #  4     ecut=    60.00 Ry     beta= 0.70
     Davidson diagonalization with overlap
     ethr =  1.69E-08,  avg # of iterations =  3.8

     total cpu time spent up to now is        6.2 secs

     End of self-consistent calculation

          k = 0.0000 0.0000 0.0000 (   869 PWs)   bands (ev):

    -3.1805  20.7584  20.7585  22.3738  22.3738  22.3738

          k =-0.1000 0.1000-0.1000 (   881 PWs)   bands (ev):

    -2.9059  17.4767  20.0614  20.0614  23.0082  23.4830

          k =-0.2000 0.2000-0.2000 (   875 PWs)   bands (ev):

    -2.0854  13.4473  19.3107  19.3108  22.7107  23.8596

          k =-0.3000 0.3000-0.3000 (   863 PWs)   bands (ev):

    -0.7285   9.7191  18.9618  18.9618  22.0864  22.0864

          k =-0.4000 0.4000-0.4000 (   869 PWs)   bands (ev):

     1.1494   6.4025  19.0594  19.0594  20.6290  20.6291

          k = 0.5000-0.5000 0.5000 (   862 PWs)   bands (ev):

     3.4078   3.6627  19.5890  19.5890  19.6406  19.6406

          k = 0.0000 0.2000 0.0000 (   889 PWs)   bands (ev):

    -2.8145  18.6630  18.6630  18.9080  21.5754  24.1218

          k =-0.1000 0.3000-0.1000 (   876 PWs)   bands (ev):

    -2.1763  14.9274  17.6832  19.0817  21.5618  22.3467

          k =-0.2000 0.4000-0.2000 (   864 PWs)   bands (ev):

    -0.9989  11.1249  17.1573  18.7487  19.5140  24.4320

          k =-0.3000 0.5000-0.3000 (   862 PWs)   bands (ev):

     0.7043   7.6811  17.0920  17.7851  18.7940  23.3547

          k = 0.6000-0.4000 0.6000 (   857 PWs)   bands (ev):

     2.9096   4.6780  16.5866  17.4908  19.2315  22.2096

          k = 0.5000-0.3000 0.5000 (   862 PWs)   bands (ev):

     2.1220   5.6242  15.8589  18.3556  20.1546  21.5053

          k = 0.4000-0.2000 0.4000 (   861 PWs)   bands (ev):

     0.0793   8.7772  15.6194  19.6794  21.2510  21.5367

          k = 0.3000-0.1000 0.3000 (   865 PWs)   bands (ev):

    -1.4505  12.3291  15.8872  21.2666  21.5728  23.3164

          k = 0.2000 0.0000 0.2000 (   875 PWs)   bands (ev):

    -2.4494  15.8515  16.9799  21.4722  22.7077  23.8514

          k = 0.0000 0.4000 0.0000 (   869 PWs)   bands (ev):

    -1.7222  16.5224  16.5224  16.5449  18.9120  20.0105

          k =-0.1000 0.5000-0.1000 (   860 PWs)   bands (ev):

    -0.7287  12.9360  15.8296  16.5329  17.2642  20.7183

          k =-0.2000 0.6000-0.2000 (   853 PWs)   bands (ev):

     0.7924   9.4329  14.6762  15.6034  17.2765  23.2397

          k = 0.7000-0.3000 0.7000 (   858 PWs)   bands (ev):

     2.8211   6.3075  13.2788  15.8437  17.6107  25.2494

          k = 0.6000-0.2000 0.6000 (   857 PWs)   bands (ev):

     3.6064   5.3560  12.3818  16.5516  18.4169  24.4158

          k = 0.5000-0.1000 0.5000 (   864 PWs)   bands (ev):

     1.4150   8.2856  12.0329  17.7273  19.6995  24.0019

          k = 0.4000 0.0000 0.4000 (   861 PWs)   bands (ev):

    -0.2792  11.1550  12.6908  19.3639  21.4062  23.5980

          k = 0.0000 0.6000 0.0000 (   853 PWs)   bands (ev):

     0.0784  14.0055  14.7678  14.9751  14.9751  18.5661

          k =-0.1000 0.7000-0.1000 (   856 PWs)   bands (ev):

     1.4115  11.5257  11.9974  14.5898  15.8807  19.5367

          k = 0.8000-0.2000 0.8000 (   859 PWs)   bands (ev):

     3.2487   8.3953  10.3709  14.6715  16.2575  22.3932

          k = 0.7000-0.1000 0.7000 (   857 PWs)   bands (ev):

     5.4234   5.7230   9.3275  15.2207  16.9488  25.7987

          k = 0.6000-0.0000 0.6000 (   863 PWs)   bands (ev):

     3.2614   7.7860   9.3301  16.2390  18.1051  27.0683

          k = 0.0000 0.8000 0.0000 (   850 PWs)   bands (ev):

     2.5488   9.6456  13.6865  14.0464  14.0464  17.6043

          k = 0.9000-0.1000 0.9000 (   860 PWs)   bands (ev):

     4.1616   7.8992  10.9401  13.9705  15.1873  18.9122

          k = 0.8000 0.0000 0.8000 (   862 PWs)   bands (ev):

     5.7716   7.1065   8.1666  14.3613  15.9092  22.0994

          k = 0.0000-1.0000 0.0000 (   846 PWs)   bands (ev):

     5.1020   6.4603  13.3244  13.7372  13.7372  17.2701

          k =-0.2000 0.4000 0.0000 (   864 PWs)   bands (ev):

    -1.3601  13.5138  14.8580  19.2216  20.1563  22.0547

          k =-0.3000 0.5000-0.1000 (   859 PWs)   bands (ev):

    -0.0104  10.3143  13.9760  17.2237  20.5035  23.6142

          k = 0.6000-0.4000 0.8000 (   863 PWs)   bands (ev):

     1.8567   7.0694  13.9971  15.6925  20.7119  22.4039

          k = 0.5000-0.3000 0.7000 (   858 PWs)   bands (ev):

     4.0843   4.3721  14.3647  14.8267  21.1740  21.5044

          k =-0.2000 0.6000 0.0000 (   852 PWs)   bands (ev):

     0.4358  11.8310  13.1942  14.4432  18.5728  20.7366

          k = 0.7000-0.3000 0.9000 (   860 PWs)   bands (ev):

     2.1184   8.9543  12.3624  12.9593  19.2905  22.9363

          k = 0.6000-0.2000 0.8000 (   857 PWs)   bands (ev):

     4.2870   6.0424  11.3436  13.0999  19.8484  24.4793

          k = 0.5000-0.1000 0.7000 (   859 PWs)   bands (ev):

     3.5204   6.9223  10.6755  13.9759  20.7854  23.7583

          k = 0.4000 0.0000 0.6000 (   857 PWs)   bands (ev):

     1.5029   9.4696  11.0213  15.3640  22.1182  22.8692

          k = 0.8000-0.2000 1.0000 (   858 PWs)   bands (ev):

     2.8993   9.9598  10.8185  12.3522  17.5882  19.8532

          k = 0.7000-0.1000 0.9000 (   864 PWs)   bands (ev):

     4.8489   8.1695   8.7176  12.0607  18.6475  22.3862

          k = 0.6000 0.0000 0.8000 (   859 PWs)   bands (ev):

     5.6611   6.7779   8.2869  12.7470  19.5379  25.7864

          k =-0.2000-1.0000 0.0000 (   854 PWs)   bands (ev):

     5.4366   6.8105  10.4806  12.0032  17.2576  19.5465

          k = 0.6000-0.2000 1.0000 (   856 PWs)   bands (ev):

     3.9452   8.4591   9.8938  11.1951  21.9451  23.3913

          k = 0.5000-0.1000 0.9000 (   864 PWs)   bands (ev):

     6.0888   6.3596   9.6583  10.4076  22.9648  23.3852

          k =-0.4000-1.0000 0.0000 (   874 PWs)   bands (ev):

     6.4422   7.7945   8.1224   9.8280  21.6252  23.2864

     the Fermi energy is     8.1606 ev

!    total energy              =     -39.50199828 Ry

     total all-electron energy =      -485.644778 Ry
     estimated scf accuracy    <          2.6E-09 Ry
     smearing contrib. (-TS)   =      -0.00103734 Ry
     internal energy E=F+TS    =     -39.50096094 Ry

     The total energy is F=E-TS. E is the sum of the following terms:
     one-electron contribution =       3.20324578 Ry
     hartree contribution      =       0.00577316 Ry
     xc contribution           =      -2.59869808 Ry
     ewald contribution        =      -5.43087111 Ry
     one-center paw contrib.   =     -34.68041070 Ry

     convergence has been achieved in   4 iterations

     Forces acting on atoms (cartesian axes, Ry/au):

     atom    1 type  1   force =     0.00000000    0.00000000    0.00000000

     Total force =     0.000000     Total SCF correction =     0.000000


     Computing stress (Cartesian axis) and pressure

          total   stress  (Ry/bohr**3)                   (kbar)     P=       11.50
   0.00007817   0.00000000   0.00000000           11.50        0.00        0.00
   0.00000000   0.00007817  -0.00000000            0.00       11.50       -0.00
   0.00000000  -0.00000000   0.00007817            0.00       -0.00       11.50


     Writing output data file ./Al.save/

     init_run     :      3.17s CPU      0.75s WALL (       1 calls)
     electrons    :     45.65s CPU      5.29s WALL (       1 calls)
     forces       :      0.53s CPU      0.06s WALL (       1 calls)
     stress       :      2.42s CPU      0.40s WALL (       1 calls)

     Called by init_run:
     wfcinit      :      2.13s CPU      0.27s WALL (       1 calls)
     potinit      :      0.10s CPU      0.11s WALL (       1 calls)
     hinit0       :      0.72s CPU      0.29s WALL (       1 calls)

     Called by electrons:
     c_bands      :     35.50s CPU      3.97s WALL (       5 calls)
     sum_band     :      5.92s CPU      0.69s WALL (       5 calls)
     v_of_rho     :      0.33s CPU      0.05s WALL (       5 calls)
     newd         :      0.09s CPU      0.06s WALL (       5 calls)
     PAW_pot      :      3.89s CPU      0.65s WALL (       5 calls)
     mix_rho      :      0.02s CPU      0.00s WALL (       5 calls)

     Called by c_bands:
     init_us_2    :      1.73s CPU      0.20s WALL (     611 calls)
     cegterg      :     33.49s CPU      3.73s WALL (     235 calls)

     Called by *egterg:
     cdiaghg      :      0.74s CPU      0.08s WALL (    1004 calls)
     h_psi        :     30.62s CPU      3.47s WALL (    1098 calls)
     s_psi        :      0.83s CPU      0.09s WALL (    1098 calls)
     g_psi        :      0.14s CPU      0.01s WALL (     816 calls)

     Called by h_psi:
     h_psi:calbec :      0.69s CPU      0.08s WALL (    1098 calls)
     vloc_psi     :     28.81s CPU      3.27s WALL (    1098 calls)
     add_vuspsi   :      0.90s CPU      0.10s WALL (    1098 calls)

     General routines
     calbec       :      0.96s CPU      0.11s WALL (    1568 calls)
     fft          :      0.27s CPU      0.04s WALL (      81 calls)
     ffts         :      0.02s CPU      0.00s WALL (       5 calls)
     fftw         :     30.90s CPU      3.52s WALL (   10056 calls)

     Parallel routines

     PWSCF        :     52.37s CPU      6.69s WALL


   This run was terminated on:  10:15:31  24Feb2022            

=------------------------------------------------------------------------------=
   JOB DONE.
=------------------------------------------------------------------------------=
