
     Program PWSCF v.6.7MaX starts on 24Feb2022 at 10:15:38 

     This program is part of the open-source Quantum ESPRESSO suite
     for quantum simulation of materials; please cite
         "P. Giannozzi et al., J. Phys.:Condens. Matter 21 395502 (2009);
         "P. Giannozzi et al., J. Phys.:Condens. Matter 29 465901 (2017);
          URL http://www.quantum-espresso.org", 
     in publications or presentations arising from this work. More details at
     http://www.quantum-espresso.org/quote

     Parallel version (MPI), running on     1 processors

     MPI processes distributed on     1 nodes
     Waiting for input...
     Reading input from standard input
Warning: card &CELL ignored
Warning: card 	CELL_DYNAMICS = 'BFGS' ignored
Warning: card / ignored

     Current dimensions of program PWSCF are:
     Max number of different atomic species (ntypx) = 10
     Max number of k-points (npk) =  40000
     Max angular momentum in pseudopotentials (lmaxx) =  3
     file Al.pbe-n-kjpaw_psl.1.0.0.UPF: wavefunction(s)  3S 3P renormalized

     Subspace diagonalization in iterative solution of the eigenvalue problem:
     a serial algorithm will be used


     G-vector sticks info
     --------------------
     sticks:   dense  smooth     PW     G-vecs:    dense   smooth      PW
     Sum         475     475    151                 6879     6879    1243



     bravais-lattice index     =            2
     lattice parameter (alat)  =       7.6133  a.u.
     unit-cell volume          =     110.3212 (a.u.)^3
     number of atoms/cell      =            1
     number of atomic types    =            1
     number of electrons       =         3.00
     number of Kohn-Sham states=            6
     kinetic-energy cutoff     =      60.0000  Ry
     charge density cutoff     =     240.0000  Ry
     scf convergence threshold =      1.0E-08
     mixing beta               =       0.7000
     number of iterations used =            8  plain     mixing
     Exchange-correlation= SLA  PW   PBX  PBC
                           (   1   4   3   4   0   0   0)

     celldm(1)=   7.613300  celldm(2)=   0.000000  celldm(3)=   0.000000
     celldm(4)=   0.000000  celldm(5)=   0.000000  celldm(6)=   0.000000

     crystal axes: (cart. coord. in units of alat)
               a(1) = (  -0.500000   0.000000   0.500000 )  
               a(2) = (   0.000000   0.500000   0.500000 )  
               a(3) = (  -0.500000   0.500000   0.000000 )  

     reciprocal axes: (cart. coord. in units 2 pi/alat)
               b(1) = ( -1.000000 -1.000000  1.000000 )  
               b(2) = (  1.000000  1.000000  1.000000 )  
               b(3) = ( -1.000000  1.000000 -1.000000 )  


     PseudoPot. # 1 for Al read from file:
     ./Al.pbe-n-kjpaw_psl.1.0.0.UPF
     MD5 check sum: 502b6b27b9c6270cab5dd1084b96fa6d
     Pseudo is Projector augmented-wave + core cor, Zval =  3.0
     Generated using &quot;atomic&quot; code by A. Dal Corso  v.6.3
     Shape of augmentation charge: PSQ
     Using radial grid of 1135 points,  6 beta functions with: 
                l(1) =   0
                l(2) =   0
                l(3) =   1
                l(4) =   1
                l(5) =   2
                l(6) =   2
     Q(r) pseudized with 0 coefficients 


     atomic species   valence    mass     pseudopotential
        Al             3.00    26.98100     Al( 1.00)

     48 Sym. Ops., with inversion, found



   Cartesian axes

     site n.     atom                  positions (alat units)
         1           Al  tau(   1) = (   0.0000000   0.0000000   0.0000000  )

     number of k points=    47  Methfessel-Paxton smearing, width (Ry)=  0.0500
                       cart. coord. in units 2pi/alat
        k(    1) = (   0.0000000   0.0000000   0.0000000), wk =   0.0020000
        k(    2) = (  -0.1000000   0.1000000  -0.1000000), wk =   0.0160000
        k(    3) = (  -0.2000000   0.2000000  -0.2000000), wk =   0.0160000
        k(    4) = (  -0.3000000   0.3000000  -0.3000000), wk =   0.0160000
        k(    5) = (  -0.4000000   0.4000000  -0.4000000), wk =   0.0160000
        k(    6) = (   0.5000000  -0.5000000   0.5000000), wk =   0.0080000
        k(    7) = (   0.0000000   0.2000000   0.0000000), wk =   0.0120000
        k(    8) = (  -0.1000000   0.3000000  -0.1000000), wk =   0.0480000
        k(    9) = (  -0.2000000   0.4000000  -0.2000000), wk =   0.0480000
        k(   10) = (  -0.3000000   0.5000000  -0.3000000), wk =   0.0480000
        k(   11) = (   0.6000000  -0.4000000   0.6000000), wk =   0.0480000
        k(   12) = (   0.5000000  -0.3000000   0.5000000), wk =   0.0480000
        k(   13) = (   0.4000000  -0.2000000   0.4000000), wk =   0.0480000
        k(   14) = (   0.3000000  -0.1000000   0.3000000), wk =   0.0480000
        k(   15) = (   0.2000000   0.0000000   0.2000000), wk =   0.0240000
        k(   16) = (   0.0000000   0.4000000   0.0000000), wk =   0.0120000
        k(   17) = (  -0.1000000   0.5000000  -0.1000000), wk =   0.0480000
        k(   18) = (  -0.2000000   0.6000000  -0.2000000), wk =   0.0480000
        k(   19) = (   0.7000000  -0.3000000   0.7000000), wk =   0.0480000
        k(   20) = (   0.6000000  -0.2000000   0.6000000), wk =   0.0480000
        k(   21) = (   0.5000000  -0.1000000   0.5000000), wk =   0.0480000
        k(   22) = (   0.4000000   0.0000000   0.4000000), wk =   0.0240000
        k(   23) = (   0.0000000   0.6000000   0.0000000), wk =   0.0120000
        k(   24) = (  -0.1000000   0.7000000  -0.1000000), wk =   0.0480000
        k(   25) = (   0.8000000  -0.2000000   0.8000000), wk =   0.0480000
        k(   26) = (   0.7000000  -0.1000000   0.7000000), wk =   0.0480000
        k(   27) = (   0.6000000  -0.0000000   0.6000000), wk =   0.0240000
        k(   28) = (   0.0000000   0.8000000   0.0000000), wk =   0.0120000
        k(   29) = (   0.9000000  -0.1000000   0.9000000), wk =   0.0480000
        k(   30) = (   0.8000000   0.0000000   0.8000000), wk =   0.0240000
        k(   31) = (   0.0000000  -1.0000000   0.0000000), wk =   0.0060000
        k(   32) = (  -0.2000000   0.4000000   0.0000000), wk =   0.0480000
        k(   33) = (  -0.3000000   0.5000000  -0.1000000), wk =   0.0960000
        k(   34) = (   0.6000000  -0.4000000   0.8000000), wk =   0.0960000
        k(   35) = (   0.5000000  -0.3000000   0.7000000), wk =   0.0480000
        k(   36) = (  -0.2000000   0.6000000   0.0000000), wk =   0.0480000
        k(   37) = (   0.7000000  -0.3000000   0.9000000), wk =   0.0960000
        k(   38) = (   0.6000000  -0.2000000   0.8000000), wk =   0.0960000
        k(   39) = (   0.5000000  -0.1000000   0.7000000), wk =   0.0960000
        k(   40) = (   0.4000000   0.0000000   0.6000000), wk =   0.0480000
        k(   41) = (   0.8000000  -0.2000000   1.0000000), wk =   0.0480000
        k(   42) = (   0.7000000  -0.1000000   0.9000000), wk =   0.0960000
        k(   43) = (   0.6000000   0.0000000   0.8000000), wk =   0.0480000
        k(   44) = (  -0.2000000  -1.0000000   0.0000000), wk =   0.0240000
        k(   45) = (   0.6000000  -0.2000000   1.0000000), wk =   0.0480000
        k(   46) = (   0.5000000  -0.1000000   0.9000000), wk =   0.0480000
        k(   47) = (  -0.4000000  -1.0000000   0.0000000), wk =   0.0240000

     Dense  grid:     6879 G-vectors     FFT dimensions: (  27,  27,  27)

     Estimated max dynamical RAM per process >      30.60 MB

     Initial potential from superposition of free atoms

     starting charge    2.99771, renormalised to    3.00000
     Starting wfcs are    4 randomized atomic wfcs +    2 random wfcs
     Checking if some PAW data can be deallocated... 

     total cpu time spent up to now is        0.8 secs

     Self-consistent Calculation

     iteration #  1     ecut=    60.00 Ry     beta= 0.70
     Davidson diagonalization with overlap
     ethr =  1.00E-02,  avg # of iterations =  6.3

     Threshold (ethr) on eigenvalues was too large:
     Diagonalizing with lowered threshold

     Davidson diagonalization with overlap
     ethr =  1.85E-04,  avg # of iterations =  3.4

     total cpu time spent up to now is        3.2 secs

     total energy              =     -39.50207767 Ry
     estimated scf accuracy    <       0.00544992 Ry

     iteration #  2     ecut=    60.00 Ry     beta= 0.70
     Davidson diagonalization with overlap
     ethr =  1.82E-04,  avg # of iterations =  1.0

     total cpu time spent up to now is        4.0 secs

     total energy              =     -39.50203073 Ry
     estimated scf accuracy    <       0.00039746 Ry

     iteration #  3     ecut=    60.00 Ry     beta= 0.70
     Davidson diagonalization with overlap
     ethr =  1.32E-05,  avg # of iterations =  2.9

     total cpu time spent up to now is        5.0 secs

     total energy              =     -39.50203849 Ry
     estimated scf accuracy    <       0.00000048 Ry

     iteration #  4     ecut=    60.00 Ry     beta= 0.70
     Davidson diagonalization with overlap
     ethr =  1.61E-08,  avg # of iterations =  3.9

     total cpu time spent up to now is        6.1 secs

     End of self-consistent calculation

          k = 0.0000 0.0000 0.0000 (   893 PWs)   bands (ev):

    -3.2014  20.6618  20.6618  22.2309  22.2309  22.2309

          k =-0.1000 0.1000-0.1000 (   881 PWs)   bands (ev):

    -2.9279  17.3815  19.9562  19.9562  22.8801  23.3455

          k =-0.2000 0.2000-0.2000 (   875 PWs)   bands (ev):

    -2.1106  13.3654  19.2038  19.2039  22.5884  23.7310

          k =-0.3000 0.3000-0.3000 (   869 PWs)   bands (ev):

    -0.7589   9.6501  18.8548  18.8548  21.9685  21.9686

          k =-0.4000 0.4000-0.4000 (   869 PWs)   bands (ev):

     1.1119   6.3451  18.9520  18.9520  20.5160  20.5160

          k = 0.5000-0.5000 0.5000 (   862 PWs)   bands (ev):

     3.3691   3.6080  19.4980  19.4980  19.5126  19.5126

          k = 0.0000 0.2000 0.0000 (   889 PWs)   bands (ev):

    -2.8368  18.5590  18.5590  18.8201  21.4355  24.0053

          k =-0.1000 0.3000-0.1000 (   876 PWs)   bands (ev):

    -2.2011  14.8413  17.5810  18.9818  21.4360  22.2277

          k =-0.2000 0.4000-0.2000 (   870 PWs)   bands (ev):

    -1.0283  11.0513  17.0560  18.6503  19.4004  24.2959

          k =-0.3000 0.5000-0.3000 (   862 PWs)   bands (ev):

     0.6685   7.6194  16.9907  17.6884  18.6834  23.2321

          k = 0.6000-0.4000 0.6000 (   865 PWs)   bands (ev):

     2.8664   4.6261  16.4908  17.3882  19.1220  22.0914

          k = 0.5000-0.3000 0.5000 (   862 PWs)   bands (ev):

     2.0812   5.5695  15.7645  18.2497  20.0427  21.3903

          k = 0.4000-0.2000 0.4000 (   866 PWs)   bands (ev):

     0.0458   8.7117  15.5251  19.5674  21.1399  21.4206

          k = 0.3000-0.1000 0.3000 (   869 PWs)   bands (ev):

    -1.4782  12.2520  15.7912  21.1390  21.4720  23.1947

          k = 0.2000 0.0000 0.2000 (   891 PWs)   bands (ev):

    -2.4732  15.7652  16.8777  21.3726  22.5577  23.7186

          k = 0.0000 0.4000 0.0000 (   869 PWs)   bands (ev):

    -1.7488  16.4233  16.4233  16.4671  18.8119  19.8776

          k =-0.1000 0.5000-0.1000 (   862 PWs)   bands (ev):

    -0.7591  12.8576  15.7323  16.4437  17.1640  20.5922

          k =-0.2000 0.6000-0.2000 (   865 PWs)   bands (ev):

     0.7563   9.3657  14.5890  15.5066  17.1758  23.1102

          k = 0.7000-0.3000 0.7000 (   862 PWs)   bands (ev):

     2.7779   6.2505  13.1950  15.7460  17.5084  25.1209

          k = 0.6000-0.2000 0.6000 (   857 PWs)   bands (ev):

     3.5608   5.3019  12.3002  16.4515  18.3116  24.2910

          k = 0.5000-0.1000 0.5000 (   864 PWs)   bands (ev):

     1.3765   8.2229  11.9510  17.6231  19.5896  23.8809

          k = 0.4000 0.0000 0.4000 (   861 PWs)   bands (ev):

    -0.3113  11.0859  12.6025  19.2532  21.2904  23.4894

          k = 0.0000 0.6000 0.0000 (   861 PWs)   bands (ev):

     0.0449  13.9217  14.6976  14.8802  14.8802  18.4394

          k =-0.1000 0.7000-0.1000 (   856 PWs)   bands (ev):

     1.3731  11.4563  11.9159  14.4958  15.7903  19.4141

          k = 0.8000-0.2000 0.8000 (   865 PWs)   bands (ev):

     3.2040   8.3330  10.2960  14.5773  16.1623  22.2666

          k = 0.7000-0.1000 0.7000 (   858 PWs)   bands (ev):

     5.3772   5.6636   9.2555  15.1247  16.8499  25.6621

          k = 0.6000-0.0000 0.6000 (   867 PWs)   bands (ev):

     3.2165   7.7287   9.2542  16.1398  18.0013  26.9448

          k = 0.0000 0.8000 0.0000 (   862 PWs)   bands (ev):

     2.5064   9.5763  13.6206  13.9540  13.9540  17.4821

          k = 0.9000-0.1000 0.9000 (   863 PWs)   bands (ev):

     4.1140   7.8357  10.8679  13.8782  15.0999  18.7920

          k = 0.8000 0.0000 0.8000 (   862 PWs)   bands (ev):

     5.7211   7.0477   8.0970  14.2679  15.8158  21.9739

          k = 0.0000-1.0000 0.0000 (   846 PWs)   bands (ev):

     5.0537   6.3986  13.2600  13.6456  13.6456  17.1495

          k =-0.2000 0.4000 0.0000 (   864 PWs)   bands (ev):

    -1.3881  13.4362  14.7626  19.1133  20.0551  21.9231

          k =-0.3000 0.5000-0.1000 (   867 PWs)   bands (ev):

    -0.0436  10.2446  13.8873  17.1223  20.3942  23.4840

          k = 0.6000-0.4000 0.8000 (   867 PWs)   bands (ev):

     1.8167   7.0100  13.9107  15.5950  20.5983  22.2852

          k = 0.5000-0.3000 0.7000 (   864 PWs)   bands (ev):

     4.0432   4.3151  14.2855  14.7239  21.0531  21.3942

          k =-0.2000 0.6000 0.0000 (   852 PWs)   bands (ev):

     0.4010  11.7597  13.1094  14.3484  18.4761  20.6080

          k = 0.7000-0.3000 0.9000 (   865 PWs)   bands (ev):

     2.0775   8.8898  12.2914  12.8609  19.1855  22.8062

          k = 0.6000-0.2000 0.8000 (   867 PWs)   bands (ev):

     4.2392   5.9862  11.2683  13.0094  19.7385  24.3520

          k = 0.5000-0.1000 0.7000 (   867 PWs)   bands (ev):

     3.4747   6.8643  10.5996  13.8844  20.6709  23.6370

          k = 0.4000 0.0000 0.6000 (   867 PWs)   bands (ev):

     1.4641   9.4065  10.9399  15.2683  21.9971  22.7570

          k = 0.8000-0.2000 1.0000 (   866 PWs)   bands (ev):

     2.8557   9.8913  10.7510  12.2594  17.4947  19.7278

          k = 0.7000-0.1000 0.9000 (   864 PWs)   bands (ev):

     4.7992   8.1131   8.6446  11.9740  18.5449  22.2582

          k = 0.6000 0.0000 0.8000 (   859 PWs)   bands (ev):

     5.6091   6.7240   8.2149  12.6594  19.4293  25.6492

          k =-0.2000-1.0000 0.0000 (   866 PWs)   bands (ev):

     5.3873   6.7482  10.4144  11.9130  17.1651  19.4224

          k = 0.6000-0.2000 1.0000 (   878 PWs)   bands (ev):

     3.8980   8.3995   9.8243  11.1061  21.8354  23.2551

          k = 0.5000-0.1000 0.9000 (   868 PWs)   bands (ev):

     6.0400   6.2995   9.5982  10.3147  22.8404  23.2684

          k =-0.4000-1.0000 0.0000 (   876 PWs)   bands (ev):

     6.3895   7.7341   8.0641   9.7388  21.5162  23.1505

     the Fermi energy is     8.0979 ev

!    total energy              =     -39.50203912 Ry

     total all-electron energy =      -485.644819 Ry
     estimated scf accuracy    <          2.9E-09 Ry
     smearing contrib. (-TS)   =      -0.00104551 Ry
     internal energy E=F+TS    =     -39.50099361 Ry

     The total energy is F=E-TS. E is the sum of the following terms:
     one-electron contribution =       3.18855093 Ry
     hartree contribution      =       0.00573174 Ry
     xc contribution           =      -2.59543046 Ry
     ewald contribution        =      -5.41995701 Ry
     one-center paw contrib.   =     -34.67988883 Ry

     convergence has been achieved in   4 iterations

     Forces acting on atoms (cartesian axes, Ry/au):

     atom    1 type  1   force =     0.00000000    0.00000000    0.00000000

     Total force =     0.000000     Total SCF correction =     0.000000


     Computing stress (Cartesian axis) and pressure

          total   stress  (Ry/bohr**3)                   (kbar)     P=        6.63
   0.00004506   0.00000000   0.00000000            6.63        0.00        0.00
   0.00000000   0.00004506   0.00000000            0.00        6.63        0.00
   0.00000000   0.00000000   0.00004506            0.00        0.00        6.63


     Writing output data file ./Al.save/

     init_run     :      2.74s CPU      0.67s WALL (       1 calls)
     electrons    :     45.82s CPU      5.31s WALL (       1 calls)
     forces       :      0.54s CPU      0.06s WALL (       1 calls)
     stress       :      2.75s CPU      0.41s WALL (       1 calls)

     Called by init_run:
     wfcinit      :      1.81s CPU      0.27s WALL (       1 calls)
     potinit      :      0.11s CPU      0.11s WALL (       1 calls)
     hinit0       :      0.72s CPU      0.26s WALL (       1 calls)

     Called by electrons:
     c_bands      :     35.36s CPU      4.00s WALL (       5 calls)
     sum_band     :      6.26s CPU      0.70s WALL (       5 calls)
     v_of_rho     :      0.34s CPU      0.05s WALL (       5 calls)
     newd         :      0.08s CPU      0.04s WALL (       5 calls)
     PAW_pot      :      3.82s CPU      0.63s WALL (       5 calls)
     mix_rho      :      0.03s CPU      0.00s WALL (       5 calls)

     Called by c_bands:
     init_us_2    :      1.67s CPU      0.20s WALL (     611 calls)
     cegterg      :     33.37s CPU      3.78s WALL (     235 calls)

     Called by *egterg:
     cdiaghg      :      0.75s CPU      0.08s WALL (    1007 calls)
     h_psi        :     30.26s CPU      3.51s WALL (    1101 calls)
     s_psi        :      0.79s CPU      0.09s WALL (    1101 calls)
     g_psi        :      0.14s CPU      0.02s WALL (     819 calls)

     Called by h_psi:
     h_psi:calbec :      0.66s CPU      0.08s WALL (    1101 calls)
     vloc_psi     :     28.50s CPU      3.30s WALL (    1101 calls)
     add_vuspsi   :      0.86s CPU      0.10s WALL (    1101 calls)

     General routines
     calbec       :      0.93s CPU      0.11s WALL (    1571 calls)
     fft          :      0.28s CPU      0.04s WALL (      81 calls)
     ffts         :      0.03s CPU      0.00s WALL (       5 calls)
     fftw         :     30.71s CPU      3.54s WALL (   10100 calls)

     Parallel routines

     PWSCF        :     52.53s CPU      6.62s WALL


   This run was terminated on:  10:15:45  24Feb2022            

=------------------------------------------------------------------------------=
   JOB DONE.
=------------------------------------------------------------------------------=
