
     Program PWSCF v.6.7MaX starts on 22Feb2022 at 14: 1:57 

     This program is part of the open-source Quantum ESPRESSO suite
     for quantum simulation of materials; please cite
         "P. Giannozzi et al., J. Phys.:Condens. Matter 21 395502 (2009);
         "P. Giannozzi et al., J. Phys.:Condens. Matter 29 465901 (2017);
          URL http://www.quantum-espresso.org", 
     in publications or presentations arising from this work. More details at
     http://www.quantum-espresso.org/quote

     Parallel version (MPI), running on     1 processors

     MPI processes distributed on     1 nodes
     Waiting for input...
     Reading input from standard input
Warning: card &CELL ignored
Warning: card 	CELL_DYNAMICS = 'BFGS' ignored
Warning: card / ignored

     Current dimensions of program PWSCF are:
     Max number of different atomic species (ntypx) = 10
     Max number of k-points (npk) =  40000
     Max angular momentum in pseudopotentials (lmaxx) =  3
     file Al.pbe-n-kjpaw_psl.1.0.0.UPF: wavefunction(s)  3S 3P renormalized

     Subspace diagonalization in iterative solution of the eigenvalue problem:
     a serial algorithm will be used


     G-vector sticks info
     --------------------
     sticks:   dense  smooth     PW     G-vecs:    dense   smooth      PW
     Sum         199     199     73                 1917     1917     411



     bravais-lattice index     =            2
     lattice parameter (alat)  =       5.0000  a.u.
     unit-cell volume          =      31.2500 (a.u.)^3
     number of atoms/cell      =            1
     number of atomic types    =            1
     number of electrons       =         3.00
     number of Kohn-Sham states=            6
     kinetic-energy cutoff     =      60.0000  Ry
     charge density cutoff     =     240.0000  Ry
     scf convergence threshold =      1.0E-08
     mixing beta               =       0.7000
     number of iterations used =            8  plain     mixing
     Exchange-correlation= SLA  PW   PBX  PBC
                           (   1   4   3   4   0   0   0)

     celldm(1)=   5.000000  celldm(2)=   0.000000  celldm(3)=   0.000000
     celldm(4)=   0.000000  celldm(5)=   0.000000  celldm(6)=   0.000000

     crystal axes: (cart. coord. in units of alat)
               a(1) = (  -0.500000   0.000000   0.500000 )  
               a(2) = (   0.000000   0.500000   0.500000 )  
               a(3) = (  -0.500000   0.500000   0.000000 )  

     reciprocal axes: (cart. coord. in units 2 pi/alat)
               b(1) = ( -1.000000 -1.000000  1.000000 )  
               b(2) = (  1.000000  1.000000  1.000000 )  
               b(3) = ( -1.000000  1.000000 -1.000000 )  


     PseudoPot. # 1 for Al read from file:
     ./Al.pbe-n-kjpaw_psl.1.0.0.UPF
     MD5 check sum: 502b6b27b9c6270cab5dd1084b96fa6d
     Pseudo is Projector augmented-wave + core cor, Zval =  3.0
     Generated using &quot;atomic&quot; code by A. Dal Corso  v.6.3
     Shape of augmentation charge: PSQ
     Using radial grid of 1135 points,  6 beta functions with: 
                l(1) =   0
                l(2) =   0
                l(3) =   1
                l(4) =   1
                l(5) =   2
                l(6) =   2
     Q(r) pseudized with 0 coefficients 


     atomic species   valence    mass     pseudopotential
        Al             3.00    26.98100     Al( 1.00)

     48 Sym. Ops., with inversion, found



   Cartesian axes

     site n.     atom                  positions (alat units)
         1           Al  tau(   1) = (   0.0000000   0.0000000   0.0000000  )

     number of k points=     8  Methfessel-Paxton smearing, width (Ry)=  0.0500
                       cart. coord. in units 2pi/alat
        k(    1) = (   0.0000000   0.0000000   0.0000000), wk =   0.0312500
        k(    2) = (  -0.2500000   0.2500000  -0.2500000), wk =   0.2500000
        k(    3) = (   0.5000000  -0.5000000   0.5000000), wk =   0.1250000
        k(    4) = (   0.0000000   0.5000000   0.0000000), wk =   0.1875000
        k(    5) = (   0.7500000  -0.2500000   0.7500000), wk =   0.7500000
        k(    6) = (   0.5000000   0.0000000   0.5000000), wk =   0.3750000
        k(    7) = (   0.0000000  -1.0000000   0.0000000), wk =   0.0937500
        k(    8) = (  -0.5000000  -1.0000000   0.0000000), wk =   0.1875000

     Dense  grid:     1917 G-vectors     FFT dimensions: (  18,  18,  18)

     Estimated max dynamical RAM per process >       8.59 MB

     Initial potential from superposition of free atoms

     starting charge    2.99771, renormalised to    3.00000
     Starting wfcs are    4 randomized atomic wfcs +    2 random wfcs
     Checking if some PAW data can be deallocated... 

     total cpu time spent up to now is        0.5 secs

     Self-consistent Calculation

     iteration #  1     ecut=    60.00 Ry     beta= 0.70
     Davidson diagonalization with overlap
     ethr =  1.00E-02,  avg # of iterations =  6.1

     Threshold (ethr) on eigenvalues was too large:
     Diagonalizing with lowered threshold

     Davidson diagonalization with overlap
     ethr =  4.93E-04,  avg # of iterations =  1.1

     total cpu time spent up to now is        0.8 secs

     total energy              =     -38.24758008 Ry
     estimated scf accuracy    <       0.01473158 Ry

     iteration #  2     ecut=    60.00 Ry     beta= 0.70
     Davidson diagonalization with overlap
     ethr =  4.91E-04,  avg # of iterations =  2.1

     total cpu time spent up to now is        1.1 secs

     total energy              =     -38.24944322 Ry
     estimated scf accuracy    <       0.00168546 Ry

     iteration #  3     ecut=    60.00 Ry     beta= 0.70
     Davidson diagonalization with overlap
     ethr =  5.62E-05,  avg # of iterations =  2.9

     total cpu time spent up to now is        1.3 secs

     total energy              =     -38.24968374 Ry
     estimated scf accuracy    <       0.00000311 Ry

     iteration #  4     ecut=    60.00 Ry     beta= 0.70
     Davidson diagonalization with overlap
     ethr =  1.04E-07,  avg # of iterations =  3.0

     total cpu time spent up to now is        1.4 secs

     total energy              =     -38.24968439 Ry
     estimated scf accuracy    <       0.00000019 Ry

     iteration #  5     ecut=    60.00 Ry     beta= 0.70
     Davidson diagonalization with overlap
     ethr =  6.38E-09,  avg # of iterations =  2.1

     total cpu time spent up to now is        1.6 secs

     End of self-consistent calculation

          k = 0.0000 0.0000 0.0000 (   259 PWs)   bands (ev):

     8.0954  52.0502  52.0502  52.0502  60.6441  69.1975

          k =-0.2500 0.2500-0.2500 (   247 PWs)   bands (ev):

    11.9057  36.3621  51.3613  51.3613  60.0194  62.5700

          k = 0.5000-0.5000 0.5000 (   242 PWs)   bands (ev):

    20.5310  23.1719  48.9797  48.9797  57.6482  65.6240

          k = 0.0000 0.5000 0.0000 (   234 PWs)   bands (ev):

    13.0690  39.3634  43.4727  48.7129  48.7129  71.4330

          k = 0.7500-0.2500 0.7500 (   242 PWs)   bands (ev):

    20.3645  28.3885  35.9037  48.0380  53.8965  73.1487

          k = 0.5000 0.0000 0.5000 (   248 PWs)   bands (ev):

    17.4447  31.6485  36.4310  50.5602  61.1681  62.7905

          k = 0.0000-1.0000 0.0000 (   230 PWs)   bands (ev):

    24.4226  25.8055  33.9541  47.5108  47.5108  66.9209

          k =-0.5000-1.0000 0.0000 (   252 PWs)   bands (ev):

    26.0318  28.3436  28.3436  43.2738  63.7499  63.7499

     the Fermi energy is    28.5350 ev

!    total energy              =     -38.24968448 Ry

     total all-electron energy =      -484.392465 Ry
     estimated scf accuracy    <          1.4E-09 Ry
     smearing contrib. (-TS)   =      -0.00663733 Ry
     internal energy E=F+TS    =     -38.24304715 Ry

     The total energy is F=E-TS. E is the sum of the following terms:
     one-electron contribution =       8.64389976 Ry
     hartree contribution      =       0.03975662 Ry
     xc contribution           =      -3.59038044 Ry
     ewald contribution        =      -8.25275173 Ry
     one-center paw contrib.   =     -35.08357135 Ry

     convergence has been achieved in   5 iterations

     Forces acting on atoms (cartesian axes, Ry/au):

     atom    1 type  1   force =     0.00000000    0.00000000    0.00000000

     Total force =     0.000000     Total SCF correction =     0.000000


     Computing stress (Cartesian axis) and pressure

          total   stress  (Ry/bohr**3)                   (kbar)     P=    12980.00
   0.08823626  -0.00000000   0.00000000        12980.00       -0.00        0.00
  -0.00000000   0.08823626  -0.00000000           -0.00    12980.00       -0.00
   0.00000000  -0.00000000   0.08823626            0.00       -0.00    12980.00


     Writing output data file ./Al.save/

     init_run     :      0.93s CPU      0.44s WALL (       1 calls)
     electrons    :      7.81s CPU      1.10s WALL (       1 calls)
     forces       :      0.07s CPU      0.01s WALL (       1 calls)
     stress       :      0.53s CPU      0.06s WALL (       1 calls)

     Called by init_run:
     wfcinit      :      0.06s CPU      0.02s WALL (       1 calls)
     potinit      :      0.10s CPU      0.10s WALL (       1 calls)
     hinit0       :      0.61s CPU      0.25s WALL (       1 calls)

     Called by electrons:
     c_bands      :      2.06s CPU      0.27s WALL (       6 calls)
     sum_band     :      0.69s CPU      0.10s WALL (       6 calls)
     v_of_rho     :      0.08s CPU      0.02s WALL (       6 calls)
     newd         :      0.13s CPU      0.05s WALL (       6 calls)
     PAW_pot      :      5.03s CPU      0.80s WALL (       6 calls)
     mix_rho      :      0.01s CPU      0.00s WALL (       6 calls)

     Called by c_bands:
     init_us_2    :      0.09s CPU      0.01s WALL (     120 calls)
     cegterg      :      1.95s CPU      0.25s WALL (      48 calls)

     Called by *egterg:
     cdiaghg      :      0.11s CPU      0.01s WALL (     179 calls)
     h_psi        :      1.73s CPU      0.23s WALL (     195 calls)
     s_psi        :      0.04s CPU      0.01s WALL (     195 calls)
     g_psi        :      0.01s CPU      0.00s WALL (     139 calls)

     Called by h_psi:
     h_psi:calbec :      0.16s CPU      0.02s WALL (     195 calls)
     vloc_psi     :      1.52s CPU      0.20s WALL (     195 calls)
     add_vuspsi   :      0.03s CPU      0.00s WALL (     195 calls)

     General routines
     calbec       :      0.17s CPU      0.03s WALL (     283 calls)
     fft          :      0.08s CPU      0.02s WALL (      92 calls)
     ffts         :      0.01s CPU      0.00s WALL (       6 calls)
     fftw         :      1.74s CPU      0.23s WALL (    1952 calls)

     Parallel routines

     PWSCF        :      9.67s CPU      1.75s WALL


   This run was terminated on:  14: 1:58  22Feb2022            

=------------------------------------------------------------------------------=
   JOB DONE.
=------------------------------------------------------------------------------=
