
     Program PWSCF v.6.7MaX starts on 22Feb2022 at 14:59:51 

     This program is part of the open-source Quantum ESPRESSO suite
     for quantum simulation of materials; please cite
         "P. Giannozzi et al., J. Phys.:Condens. Matter 21 395502 (2009);
         "P. Giannozzi et al., J. Phys.:Condens. Matter 29 465901 (2017);
          URL http://www.quantum-espresso.org", 
     in publications or presentations arising from this work. More details at
     http://www.quantum-espresso.org/quote

     Parallel version (MPI), running on     1 processors

     MPI processes distributed on     1 nodes
     Waiting for input...
     Reading input from standard input
Warning: card &CELL ignored
Warning: card 	CELL_DYNAMICS = 'BFGS' ignored
Warning: card / ignored

     Current dimensions of program PWSCF are:
     Max number of different atomic species (ntypx) = 10
     Max number of k-points (npk) =  40000
     Max angular momentum in pseudopotentials (lmaxx) =  3
     file Al.pbe-n-kjpaw_psl.1.0.0.UPF: wavefunction(s)  3S 3P renormalized

     Subspace diagonalization in iterative solution of the eigenvalue problem:
     a serial algorithm will be used


     G-vector sticks info
     --------------------
     sticks:   dense  smooth     PW     G-vecs:    dense   smooth      PW
     Sum         199     199     73                 1917     1917     411



     bravais-lattice index     =            2
     lattice parameter (alat)  =       5.0000  a.u.
     unit-cell volume          =      31.2500 (a.u.)^3
     number of atoms/cell      =            1
     number of atomic types    =            1
     number of electrons       =         3.00
     number of Kohn-Sham states=            6
     kinetic-energy cutoff     =      60.0000  Ry
     charge density cutoff     =     240.0000  Ry
     scf convergence threshold =      1.0E-08
     mixing beta               =       0.7000
     number of iterations used =            8  plain     mixing
     Exchange-correlation= SLA  PW   PBX  PBC
                           (   1   4   3   4   0   0   0)

     celldm(1)=   5.000000  celldm(2)=   0.000000  celldm(3)=   0.000000
     celldm(4)=   0.000000  celldm(5)=   0.000000  celldm(6)=   0.000000

     crystal axes: (cart. coord. in units of alat)
               a(1) = (  -0.500000   0.000000   0.500000 )  
               a(2) = (   0.000000   0.500000   0.500000 )  
               a(3) = (  -0.500000   0.500000   0.000000 )  

     reciprocal axes: (cart. coord. in units 2 pi/alat)
               b(1) = ( -1.000000 -1.000000  1.000000 )  
               b(2) = (  1.000000  1.000000  1.000000 )  
               b(3) = ( -1.000000  1.000000 -1.000000 )  


     PseudoPot. # 1 for Al read from file:
     ./Al.pbe-n-kjpaw_psl.1.0.0.UPF
     MD5 check sum: 502b6b27b9c6270cab5dd1084b96fa6d
     Pseudo is Projector augmented-wave + core cor, Zval =  3.0
     Generated using &quot;atomic&quot; code by A. Dal Corso  v.6.3
     Shape of augmentation charge: PSQ
     Using radial grid of 1135 points,  6 beta functions with: 
                l(1) =   0
                l(2) =   0
                l(3) =   1
                l(4) =   1
                l(5) =   2
                l(6) =   2
     Q(r) pseudized with 0 coefficients 


     atomic species   valence    mass     pseudopotential
        Al             3.00    26.98100     Al( 1.00)

     48 Sym. Ops., with inversion, found



   Cartesian axes

     site n.     atom                  positions (alat units)
         1           Al  tau(   1) = (   0.0000000   0.0000000   0.0000000  )

     number of k points=    20  Methfessel-Paxton smearing, width (Ry)=  0.0500
                       cart. coord. in units 2pi/alat
        k(    1) = (   0.0000000   0.0000000   0.0000000), wk =   0.0058309
        k(    2) = (  -0.1428571   0.1428571  -0.1428571), wk =   0.0466472
        k(    3) = (  -0.2857143   0.2857143  -0.2857143), wk =   0.0466472
        k(    4) = (  -0.4285714   0.4285714  -0.4285714), wk =   0.0466472
        k(    5) = (   0.0000000   0.2857143   0.0000000), wk =   0.0349854
        k(    6) = (  -0.1428571   0.4285714  -0.1428571), wk =   0.1399417
        k(    7) = (  -0.2857143   0.5714286  -0.2857143), wk =   0.1399417
        k(    8) = (   0.5714286  -0.2857143   0.5714286), wk =   0.1399417
        k(    9) = (   0.4285714  -0.1428571   0.4285714), wk =   0.1399417
        k(   10) = (   0.2857143  -0.0000000   0.2857143), wk =   0.0699708
        k(   11) = (   0.0000000   0.5714286   0.0000000), wk =   0.0349854
        k(   12) = (  -0.1428571   0.7142857  -0.1428571), wk =   0.1399417
        k(   13) = (   0.7142857  -0.1428571   0.7142857), wk =   0.1399417
        k(   14) = (   0.5714286   0.0000000   0.5714286), wk =   0.0699708
        k(   15) = (   0.0000000   0.8571429   0.0000000), wk =   0.0349854
        k(   16) = (   0.8571429  -0.0000000   0.8571429), wk =   0.0699708
        k(   17) = (  -0.2857143   0.5714286   0.0000000), wk =   0.1399417
        k(   18) = (   0.5714286  -0.2857143   0.8571429), wk =   0.2798834
        k(   19) = (   0.7142857  -0.1428571   1.0000000), wk =   0.1399417
        k(   20) = (   0.5714286   0.0000000   0.8571429), wk =   0.1399417

     Dense  grid:     1917 G-vectors     FFT dimensions: (  18,  18,  18)

     Estimated max dynamical RAM per process >       8.86 MB

     Initial potential from superposition of free atoms

     starting charge    2.99771, renormalised to    3.00000
     Starting wfcs are    4 randomized atomic wfcs +    2 random wfcs
     Checking if some PAW data can be deallocated... 

     total cpu time spent up to now is        0.5 secs

     Self-consistent Calculation

     iteration #  1     ecut=    60.00 Ry     beta= 0.70
     Davidson diagonalization with overlap
     ethr =  1.00E-02,  avg # of iterations =  6.5

     Threshold (ethr) on eigenvalues was too large:
     Diagonalizing with lowered threshold

     Davidson diagonalization with overlap
     ethr =  4.59E-04,  avg # of iterations =  1.1

     total cpu time spent up to now is        1.0 secs

     total energy              =     -38.26401168 Ry
     estimated scf accuracy    <       0.01377587 Ry

     iteration #  2     ecut=    60.00 Ry     beta= 0.70
     Davidson diagonalization with overlap
     ethr =  4.59E-04,  avg # of iterations =  2.0

     total cpu time spent up to now is        1.3 secs

     total energy              =     -38.26591567 Ry
     estimated scf accuracy    <       0.00164872 Ry

     iteration #  3     ecut=    60.00 Ry     beta= 0.70
     Davidson diagonalization with overlap
     ethr =  5.50E-05,  avg # of iterations =  2.9

     total cpu time spent up to now is        1.5 secs

     total energy              =     -38.26614841 Ry
     estimated scf accuracy    <       0.00000240 Ry

     iteration #  4     ecut=    60.00 Ry     beta= 0.70
     Davidson diagonalization with overlap
     ethr =  7.99E-08,  avg # of iterations =  4.2

     total cpu time spent up to now is        1.8 secs

     total energy              =     -38.26615121 Ry
     estimated scf accuracy    <       0.00000012 Ry

     iteration #  5     ecut=    60.00 Ry     beta= 0.70
     Davidson diagonalization with overlap
     ethr =  4.03E-09,  avg # of iterations =  1.9

     total cpu time spent up to now is        2.0 secs

     End of self-consistent calculation

          k = 0.0000 0.0000 0.0000 (   259 PWs)   bands (ev):

     8.0964  52.0619  52.0619  52.0619  60.6648  69.1861

          k =-0.1429 0.1429-0.1429 (   262 PWs)   bands (ev):

     9.3857  43.9232  52.1346  52.1346  62.8405  63.5107

          k =-0.2857 0.2857-0.2857 (   253 PWs)   bands (ev):

    13.0009  34.0297  50.8951  50.8951  59.2815  62.9140

          k =-0.4286 0.4286-0.4286 (   241 PWs)   bands (ev):

    18.3165  25.7549  49.2299  49.2299  57.7754  65.1835

          k = 0.0000 0.2857 0.0000 (   254 PWs)   bands (ev):

     9.8030  44.8493  50.3394  50.3394  54.1694  70.5622

          k =-0.1429 0.4286-0.1429 (   247 PWs)   bands (ev):

    12.6064  37.3238  46.2258  49.2941  54.2123  69.5630

          k =-0.2857 0.5714-0.2857 (   246 PWs)   bands (ev):

    17.3059  28.9748  42.7686  48.5663  57.8203  68.3203

          k = 0.5714-0.2857 0.5714 (   248 PWs)   bands (ev):

    20.7987  24.6080  41.3985  48.9597  60.7730  66.5600

          k = 0.4286-0.1429 0.4286 (   250 PWs)   bands (ev):

    15.5736  31.6324  41.9320  51.3751  61.0445  62.8666

          k = 0.2857-0.0000 0.2857 (   251 PWs)   bands (ev):

    11.4357  39.2737  45.5437  55.6019  56.3176  63.4208

          k = 0.0000 0.5714 0.0000 (   242 PWs)   bands (ev):

    14.4602  37.9526  40.2893  48.3445  48.3445  70.5965

          k =-0.1429 0.7143-0.1429 (   240 PWs)   bands (ev):

    18.2671  32.5723  35.5964  47.9049  50.5330  70.7204

          k = 0.7143-0.1429 0.7143 (   244 PWs)   bands (ev):

    22.9132  26.8080  33.3372  48.1230  54.2355  72.9020

          k = 0.5714 0.0000 0.5714 (   248 PWs)   bands (ev):

    19.8089  29.9406  33.9223  49.4385  58.9206  66.0226

          k = 0.0000 0.8571 0.0000 (   242 PWs)   bands (ev):

    21.1093  29.5820  34.4135  47.5917  47.5917  67.4378

          k = 0.8571-0.0000 0.8571 (   236 PWs)   bands (ev):

    24.8565  26.2293  32.1466  47.6289  49.3793  69.2511

          k =-0.2857 0.5714 0.0000 (   241 PWs)   bands (ev):

    15.9090  34.0564  38.3349  48.8383  55.3759  68.5976

          k = 0.5714-0.2857 0.8571 (   243 PWs)   bands (ev):

    20.7101  27.9890  35.5940  46.8950  60.2827  65.1442

          k = 0.7143-0.1429 1.0000 (   247 PWs)   bands (ev):

    22.2617  29.9651  31.3870  45.2827  54.1607  71.2360

          k = 0.5714 0.0000 0.8571 (   248 PWs)   bands (ev):

    24.6587  27.9191  30.0609  44.6556  59.4559  67.6201

     the Fermi energy is    29.5718 ev

!    total energy              =     -38.26615123 Ry

     total all-electron energy =      -484.408931 Ry
     estimated scf accuracy    <          7.9E-10 Ry
     smearing contrib. (-TS)   =      -0.00023763 Ry
     internal energy E=F+TS    =     -38.26591360 Ry

     The total energy is F=E-TS. E is the sum of the following terms:
     one-electron contribution =       8.63312290 Ry
     hartree contribution      =       0.03836387 Ry
     xc contribution           =      -3.59137951 Ry
     ewald contribution        =      -8.25275173 Ry
     one-center paw contrib.   =     -35.09326912 Ry

     convergence has been achieved in   5 iterations

     Forces acting on atoms (cartesian axes, Ry/au):

     atom    1 type  1   force =     0.00000000    0.00000000    0.00000000

     Total force =     0.000000     Total SCF correction =     0.000000


     Computing stress (Cartesian axis) and pressure

          total   stress  (Ry/bohr**3)                   (kbar)     P=    13127.72
   0.08924042   0.00000000   0.00000000        13127.72        0.00        0.00
   0.00000000   0.08924042   0.00000000            0.00    13127.72        0.00
   0.00000000   0.00000000   0.08924042            0.00        0.00    13127.72


     Writing output data file ./Al.save/

     init_run     :      1.16s CPU      0.44s WALL (       1 calls)
     electrons    :     11.21s CPU      1.51s WALL (       1 calls)
     forces       :      0.13s CPU      0.01s WALL (       1 calls)
     stress       :      0.74s CPU      0.09s WALL (       1 calls)

     Called by init_run:
     wfcinit      :      0.23s CPU      0.04s WALL (       1 calls)
     potinit      :      0.10s CPU      0.11s WALL (       1 calls)
     hinit0       :      0.70s CPU      0.26s WALL (       1 calls)

     Called by electrons:
     c_bands      :      4.86s CPU      0.63s WALL (       6 calls)
     sum_band     :      1.18s CPU      0.15s WALL (       6 calls)
     v_of_rho     :      0.17s CPU      0.02s WALL (       6 calls)
     newd         :      0.04s CPU      0.01s WALL (       6 calls)
     PAW_pot      :      5.01s CPU      0.80s WALL (       6 calls)
     mix_rho      :      0.01s CPU      0.00s WALL (       6 calls)

     Called by c_bands:
     init_us_2    :      0.24s CPU      0.03s WALL (     300 calls)
     cegterg      :      4.56s CPU      0.59s WALL (     120 calls)

     Called by *egterg:
     cdiaghg      :      0.28s CPU      0.04s WALL (     471 calls)
     h_psi        :      4.01s CPU      0.53s WALL (     511 calls)
     s_psi        :      0.12s CPU      0.02s WALL (     511 calls)
     g_psi        :      0.02s CPU      0.00s WALL (     371 calls)

     Called by h_psi:
     h_psi:calbec :      0.08s CPU      0.01s WALL (     511 calls)
     vloc_psi     :      3.80s CPU      0.50s WALL (     511 calls)
     add_vuspsi   :      0.07s CPU      0.01s WALL (     511 calls)

     General routines
     calbec       :      0.10s CPU      0.01s WALL (     731 calls)
     fft          :      0.10s CPU      0.02s WALL (      92 calls)
     ffts         :      0.01s CPU      0.00s WALL (       6 calls)
     fftw         :      4.20s CPU      0.55s WALL (    4942 calls)

     Parallel routines

     PWSCF        :     13.58s CPU      2.18s WALL


   This run was terminated on:  14:59:53  22Feb2022            

=------------------------------------------------------------------------------=
   JOB DONE.
=------------------------------------------------------------------------------=
