
     Program PWSCF v.6.7MaX starts on 22Feb2022 at 15:21:30 

     This program is part of the open-source Quantum ESPRESSO suite
     for quantum simulation of materials; please cite
         "P. Giannozzi et al., J. Phys.:Condens. Matter 21 395502 (2009);
         "P. Giannozzi et al., J. Phys.:Condens. Matter 29 465901 (2017);
          URL http://www.quantum-espresso.org", 
     in publications or presentations arising from this work. More details at
     http://www.quantum-espresso.org/quote

     Parallel version (MPI), running on     1 processors

     MPI processes distributed on     1 nodes
     Waiting for input...
     Reading input from standard input
Warning: card &CELL ignored
Warning: card 	CELL_DYNAMICS = 'BFGS' ignored
Warning: card / ignored

     Current dimensions of program PWSCF are:
     Max number of different atomic species (ntypx) = 10
     Max number of k-points (npk) =  40000
     Max angular momentum in pseudopotentials (lmaxx) =  3
     file Al.pbe-n-kjpaw_psl.1.0.0.UPF: wavefunction(s)  3S 3P renormalized

     Subspace diagonalization in iterative solution of the eigenvalue problem:
     a serial algorithm will be used


     G-vector sticks info
     --------------------
     sticks:   dense  smooth     PW     G-vecs:    dense   smooth      PW
     Sum         241     241     85                 2445     2445     531



     bravais-lattice index     =            2
     lattice parameter (alat)  =       5.0000  a.u.
     unit-cell volume          =      31.2500 (a.u.)^3
     number of atoms/cell      =            1
     number of atomic types    =            1
     number of electrons       =         3.00
     number of Kohn-Sham states=            6
     kinetic-energy cutoff     =      70.0000  Ry
     charge density cutoff     =     280.0000  Ry
     scf convergence threshold =      1.0E-08
     mixing beta               =       0.7000
     number of iterations used =            8  plain     mixing
     Exchange-correlation= SLA  PW   PBX  PBC
                           (   1   4   3   4   0   0   0)

     celldm(1)=   5.000000  celldm(2)=   0.000000  celldm(3)=   0.000000
     celldm(4)=   0.000000  celldm(5)=   0.000000  celldm(6)=   0.000000

     crystal axes: (cart. coord. in units of alat)
               a(1) = (  -0.500000   0.000000   0.500000 )  
               a(2) = (   0.000000   0.500000   0.500000 )  
               a(3) = (  -0.500000   0.500000   0.000000 )  

     reciprocal axes: (cart. coord. in units 2 pi/alat)
               b(1) = ( -1.000000 -1.000000  1.000000 )  
               b(2) = (  1.000000  1.000000  1.000000 )  
               b(3) = ( -1.000000  1.000000 -1.000000 )  


     PseudoPot. # 1 for Al read from file:
     ./Al.pbe-n-kjpaw_psl.1.0.0.UPF
     MD5 check sum: 502b6b27b9c6270cab5dd1084b96fa6d
     Pseudo is Projector augmented-wave + core cor, Zval =  3.0
     Generated using &quot;atomic&quot; code by A. Dal Corso  v.6.3
     Shape of augmentation charge: PSQ
     Using radial grid of 1135 points,  6 beta functions with: 
                l(1) =   0
                l(2) =   0
                l(3) =   1
                l(4) =   1
                l(5) =   2
                l(6) =   2
     Q(r) pseudized with 0 coefficients 


     atomic species   valence    mass     pseudopotential
        Al             3.00    26.98100     Al( 1.00)

     48 Sym. Ops., with inversion, found



   Cartesian axes

     site n.     atom                  positions (alat units)
         1           Al  tau(   1) = (   0.0000000   0.0000000   0.0000000  )

     number of k points=    84  Methfessel-Paxton smearing, width (Ry)=  0.0500
                       cart. coord. in units 2pi/alat
        k(    1) = (   0.0000000   0.0000000   0.0000000), wk =   0.0009103
        k(    2) = (  -0.0769231   0.0769231  -0.0769231), wk =   0.0072827
        k(    3) = (  -0.1538462   0.1538462  -0.1538462), wk =   0.0072827
        k(    4) = (  -0.2307692   0.2307692  -0.2307692), wk =   0.0072827
        k(    5) = (  -0.3076923   0.3076923  -0.3076923), wk =   0.0072827
        k(    6) = (  -0.3846154   0.3846154  -0.3846154), wk =   0.0072827
        k(    7) = (  -0.4615385   0.4615385  -0.4615385), wk =   0.0072827
        k(    8) = (   0.0000000   0.1538462   0.0000000), wk =   0.0054620
        k(    9) = (  -0.0769231   0.2307692  -0.0769231), wk =   0.0218480
        k(   10) = (  -0.1538462   0.3076923  -0.1538462), wk =   0.0218480
        k(   11) = (  -0.2307692   0.3846154  -0.2307692), wk =   0.0218480
        k(   12) = (  -0.3076923   0.4615385  -0.3076923), wk =   0.0218480
        k(   13) = (  -0.3846154   0.5384615  -0.3846154), wk =   0.0218480
        k(   14) = (   0.5384615  -0.3846154   0.5384615), wk =   0.0218480
        k(   15) = (   0.4615385  -0.3076923   0.4615385), wk =   0.0218480
        k(   16) = (   0.3846154  -0.2307692   0.3846154), wk =   0.0218480
        k(   17) = (   0.3076923  -0.1538462   0.3076923), wk =   0.0218480
        k(   18) = (   0.2307692  -0.0769231   0.2307692), wk =   0.0218480
        k(   19) = (   0.1538462   0.0000000   0.1538462), wk =   0.0109240
        k(   20) = (   0.0000000   0.3076923   0.0000000), wk =   0.0054620
        k(   21) = (  -0.0769231   0.3846154  -0.0769231), wk =   0.0218480
        k(   22) = (  -0.1538462   0.4615385  -0.1538462), wk =   0.0218480
        k(   23) = (  -0.2307692   0.5384615  -0.2307692), wk =   0.0218480
        k(   24) = (  -0.3076923   0.6153846  -0.3076923), wk =   0.0218480
        k(   25) = (   0.6153846  -0.3076923   0.6153846), wk =   0.0218480
        k(   26) = (   0.5384615  -0.2307692   0.5384615), wk =   0.0218480
        k(   27) = (   0.4615385  -0.1538462   0.4615385), wk =   0.0218480
        k(   28) = (   0.3846154  -0.0769231   0.3846154), wk =   0.0218480
        k(   29) = (   0.3076923   0.0000000   0.3076923), wk =   0.0109240
        k(   30) = (   0.0000000   0.4615385   0.0000000), wk =   0.0054620
        k(   31) = (  -0.0769231   0.5384615  -0.0769231), wk =   0.0218480
        k(   32) = (  -0.1538462   0.6153846  -0.1538462), wk =   0.0218480
        k(   33) = (  -0.2307692   0.6923077  -0.2307692), wk =   0.0218480
        k(   34) = (   0.6923077  -0.2307692   0.6923077), wk =   0.0218480
        k(   35) = (   0.6153846  -0.1538462   0.6153846), wk =   0.0218480
        k(   36) = (   0.5384615  -0.0769231   0.5384615), wk =   0.0218480
        k(   37) = (   0.4615385   0.0000000   0.4615385), wk =   0.0109240
        k(   38) = (   0.0000000   0.6153846   0.0000000), wk =   0.0054620
        k(   39) = (  -0.0769231   0.6923077  -0.0769231), wk =   0.0218480
        k(   40) = (  -0.1538462   0.7692308  -0.1538462), wk =   0.0218480
        k(   41) = (   0.7692308  -0.1538462   0.7692308), wk =   0.0218480
        k(   42) = (   0.6923077  -0.0769231   0.6923077), wk =   0.0218480
        k(   43) = (   0.6153846   0.0000000   0.6153846), wk =   0.0109240
        k(   44) = (   0.0000000   0.7692308   0.0000000), wk =   0.0054620
        k(   45) = (  -0.0769231   0.8461538  -0.0769231), wk =   0.0218480
        k(   46) = (   0.8461538  -0.0769231   0.8461538), wk =   0.0218480
        k(   47) = (   0.7692308   0.0000000   0.7692308), wk =   0.0109240
        k(   48) = (   0.0000000   0.9230769   0.0000000), wk =   0.0054620
        k(   49) = (   0.9230769   0.0000000   0.9230769), wk =   0.0109240
        k(   50) = (  -0.1538462   0.3076923   0.0000000), wk =   0.0218480
        k(   51) = (  -0.2307692   0.3846154  -0.0769231), wk =   0.0436959
        k(   52) = (  -0.3076923   0.4615385  -0.1538462), wk =   0.0436959
        k(   53) = (  -0.3846154   0.5384615  -0.2307692), wk =   0.0436959
        k(   54) = (   0.5384615  -0.3846154   0.6923077), wk =   0.0436959
        k(   55) = (  -0.1538462   0.4615385   0.0000000), wk =   0.0218480
        k(   56) = (  -0.2307692   0.5384615  -0.0769231), wk =   0.0436959
        k(   57) = (  -0.3076923   0.6153846  -0.1538462), wk =   0.0436959
        k(   58) = (   0.6153846  -0.3076923   0.7692308), wk =   0.0436959
        k(   59) = (   0.5384615  -0.2307692   0.6923077), wk =   0.0436959
        k(   60) = (   0.4615385  -0.1538462   0.6153846), wk =   0.0436959
        k(   61) = (   0.3846154  -0.0769231   0.5384615), wk =   0.0436959
        k(   62) = (   0.3076923   0.0000000   0.4615385), wk =   0.0218480
        k(   63) = (  -0.1538462   0.6153846   0.0000000), wk =   0.0218480
        k(   64) = (  -0.2307692   0.6923077  -0.0769231), wk =   0.0436959
        k(   65) = (   0.6923077  -0.2307692   0.8461538), wk =   0.0436959
        k(   66) = (   0.6153846  -0.1538462   0.7692308), wk =   0.0436959
        k(   67) = (   0.5384615  -0.0769231   0.6923077), wk =   0.0436959
        k(   68) = (   0.4615385   0.0000000   0.6153846), wk =   0.0218480
        k(   69) = (  -0.1538462   0.7692308   0.0000000), wk =   0.0218480
        k(   70) = (   0.7692308  -0.1538462   0.9230769), wk =   0.0436959
        k(   71) = (   0.6923077  -0.0769231   0.8461538), wk =   0.0436959
        k(   72) = (   0.6153846   0.0000000   0.7692308), wk =   0.0218480
        k(   73) = (   0.8461538  -0.0769231   1.0000000), wk =   0.0218480
        k(   74) = (   0.7692308   0.0000000   0.9230769), wk =   0.0218480
        k(   75) = (  -0.3076923   0.6153846   0.0000000), wk =   0.0218480
        k(   76) = (   0.6153846  -0.3076923   0.9230769), wk =   0.0436959
        k(   77) = (   0.5384615  -0.2307692   0.8461538), wk =   0.0436959
        k(   78) = (   0.6923077  -0.2307692   1.0000000), wk =   0.0218480
        k(   79) = (   0.6153846  -0.1538462   0.9230769), wk =   0.0436959
        k(   80) = (   0.5384615  -0.0769231   0.8461538), wk =   0.0436959
        k(   81) = (   0.4615385   0.0000000   0.7692308), wk =   0.0218480
        k(   82) = (   0.6923077  -0.0769231   1.0000000), wk =   0.0218480
        k(   83) = (   0.6153846   0.0000000   0.9230769), wk =   0.0218480
        k(   84) = (   0.5384615  -0.0769231   1.0000000), wk =   0.0218480

     Dense  grid:     2445 G-vectors     FFT dimensions: (  20,  20,  20)

     Estimated max dynamical RAM per process >      12.90 MB

     Initial potential from superposition of free atoms

     starting charge    2.99771, renormalised to    3.00000
     Starting wfcs are    4 randomized atomic wfcs +    2 random wfcs
     Checking if some PAW data can be deallocated... 

     total cpu time spent up to now is        0.6 secs

     Self-consistent Calculation

     iteration #  1     ecut=    70.00 Ry     beta= 0.70
     Davidson diagonalization with overlap
     ethr =  1.00E-02,  avg # of iterations =  6.5

     Threshold (ethr) on eigenvalues was too large:
     Diagonalizing with lowered threshold

     Davidson diagonalization with overlap
     ethr =  4.68E-04,  avg # of iterations =  1.3

     total cpu time spent up to now is        1.5 secs

     total energy              =     -38.26672751 Ry
     estimated scf accuracy    <       0.01402498 Ry

     iteration #  2     ecut=    70.00 Ry     beta= 0.70
     Davidson diagonalization with overlap
     ethr =  4.67E-04,  avg # of iterations =  1.9

     total cpu time spent up to now is        1.9 secs

     total energy              =     -38.26859474 Ry
     estimated scf accuracy    <       0.00166530 Ry

     iteration #  3     ecut=    70.00 Ry     beta= 0.70
     Davidson diagonalization with overlap
     ethr =  5.55E-05,  avg # of iterations =  2.4

     total cpu time spent up to now is        2.4 secs

     total energy              =     -38.26882440 Ry
     estimated scf accuracy    <       0.00000260 Ry

     iteration #  4     ecut=    70.00 Ry     beta= 0.70
     Davidson diagonalization with overlap
     ethr =  8.65E-08,  avg # of iterations =  3.5

     total cpu time spent up to now is        2.8 secs

     total energy              =     -38.26882661 Ry
     estimated scf accuracy    <       0.00000016 Ry

     iteration #  5     ecut=    70.00 Ry     beta= 0.70
     Davidson diagonalization with overlap
     ethr =  5.20E-09,  avg # of iterations =  2.0

     total cpu time spent up to now is        3.3 secs

     End of self-consistent calculation

          k = 0.0000 0.0000 0.0000 (   331 PWs)   bands (ev):

     8.0987  52.0604  52.0604  52.0604  60.6585  69.1909

          k =-0.0769 0.0769-0.0769 (   319 PWs)   bands (ev):

     8.4773  48.6512  52.1247  52.1247  63.1464  65.6228

          k =-0.1538 0.1538-0.1538 (   310 PWs)   bands (ev):

     9.5898  43.1217  52.1093  52.1093  62.5495  63.2638

          k =-0.2308 0.2308-0.2308 (   311 PWs)   bands (ev):

    11.3713  37.6739  51.5887  51.5887  60.4560  62.5104

          k =-0.3077 0.3077-0.3077 (   305 PWs)   bands (ev):

    13.7301  32.6388  50.5895  50.5895  58.9164  63.2220

          k =-0.3846 0.3846-0.3846 (   308 PWs)   bands (ev):

    16.5579  28.0952  49.6169  49.6169  58.0381  64.5336

          k =-0.4615 0.4615-0.4615 (   308 PWs)   bands (ev):

    19.6196  24.2023  49.0534  49.0534  57.6751  65.5079

          k = 0.0000 0.1538 0.0000 (   315 PWs)   bands (ev):

     8.6024  48.8561  51.4355  51.4355  61.3838  64.8780

          k =-0.0769 0.2308-0.0769 (   311 PWs)   bands (ev):

     9.4671  44.6483  50.9393  51.4961  58.1303  66.6654

          k =-0.1538 0.3077-0.1538 (   310 PWs)   bands (ev):

    11.0202  39.4386  50.4192  50.5432  57.6235  64.8419

          k =-0.2308 0.3846-0.2308 (   304 PWs)   bands (ev):

    13.1787  34.3877  48.7573  49.7810  59.0111  63.2143

          k =-0.3077 0.4615-0.3077 (   307 PWs)   bands (ev):

    15.8406  29.7430  47.2218  49.1693  60.3645  62.8022

          k =-0.3846 0.5385-0.3846 (   311 PWs)   bands (ev):

    18.8514  25.6322  46.2119  48.8350  60.6459  63.7846

          k = 0.5385-0.3846 0.5385 (   310 PWs)   bands (ev):

    20.5896  23.6264  45.7568  48.9832  60.7599  64.6953

          k = 0.4615-0.3077 0.4615 (   307 PWs)   bands (ev):

    17.8268  26.9357  45.8331  49.7285  61.0364  64.0444

          k = 0.3846-0.2308 0.3846 (   307 PWs)   bands (ev):

    14.9048  31.2439  46.3964  51.0821  61.5347  61.6239

          k = 0.3077-0.1538 0.3077 (   306 PWs)   bands (ev):

    12.3988  36.0110  47.3727  52.8233  59.4682  62.1814

          k = 0.2308-0.0769 0.2308 (   312 PWs)   bands (ev):

    10.4314  41.0518  48.6664  53.8051  59.1242  62.9699

          k = 0.1538 0.0000 0.1538 (   315 PWs)   bands (ev):

     9.0994  45.7548  50.3292  53.0897  61.6852  64.3268

          k = 0.0000 0.3077 0.0000 (   307 PWs)   bands (ev):

    10.0701  44.2109  50.1495  50.1495  53.0015  70.8311

          k =-0.0769 0.3846-0.0769 (   306 PWs)   bands (ev):

    11.3638  40.7558  47.8731  49.5633  52.2058  70.6491

          k =-0.1538 0.4615-0.1538 (   307 PWs)   bands (ev):

    13.2789  36.2292  45.0047  49.0609  54.0960  70.1246

          k =-0.2308 0.5385-0.2308 (   315 PWs)   bands (ev):

    15.7229  31.7016  42.9840  48.6522  56.1231  69.5073

          k =-0.3077 0.6154-0.3077 (   311 PWs)   bands (ev):

    18.5667  27.5566  41.6459  48.4635  57.9619  69.2361

          k = 0.6154-0.3077 0.6154 (   309 PWs)   bands (ev):

    21.1636  24.4638  40.8689  48.6607  59.6378  67.8492

          k = 0.5385-0.2308 0.5385 (   306 PWs)   bands (ev):

    19.5357  26.3759  40.6167  49.3892  61.1921  65.3371

          k = 0.4615-0.1538 0.4615 (   308 PWs)   bands (ev):

    16.6343  30.3059  40.9503  50.7532  62.1682  62.4609

          k = 0.3846-0.0769 0.3846 (   307 PWs)   bands (ev):

    14.0462  34.5223  42.0883  52.8153  58.9587  63.2247

          k = 0.3077 0.0000 0.3077 (   311 PWs)   bands (ev):

    11.9438  38.3156  44.5837  55.5540  56.1634  63.4446

          k = 0.0000 0.4615 0.0000 (   303 PWs)   bands (ev):

    12.3825  40.2286  45.2589  48.9634  48.9634  71.8446

          k =-0.0769 0.5385-0.0769 (   310 PWs)   bands (ev):

    14.0242  37.5233  41.5724  48.5277  49.9447  71.3662

          k =-0.1538 0.6154-0.1538 (   312 PWs)   bands (ev):

    16.2111  33.6437  39.0602  48.2220  51.8819  71.7932

          k =-0.2308 0.6923-0.2308 (   313 PWs)   bands (ev):

    18.8333  29.6810  37.4564  48.0953  53.8632  72.8779

          k = 0.6923-0.2308 0.6923 (   311 PWs)   bands (ev):

    21.5528  26.3326  36.4058  48.2527  55.8483  71.1256

          k = 0.6154-0.1538 0.6154 (   307 PWs)   bands (ev):

    21.4859  26.4867  35.8656  48.8084  57.9655  68.1795

          k = 0.5385-0.0769 0.5385 (   305 PWs)   bands (ev):

    18.8091  29.7802  36.0774  49.8403  60.1721  64.6080

          k = 0.4615 0.0000 0.4615 (   311 PWs)   bands (ev):

    16.2241  32.7524  37.9286  51.3217  61.2337  62.1341

          k = 0.0000 0.6154 0.0000 (   311 PWs)   bands (ev):

    15.3791  37.1779  38.4434  48.1564  48.1564  70.0368

          k =-0.0769 0.6923-0.0769 (   316 PWs)   bands (ev):

    17.2853  34.8221  35.8110  47.9145  48.8438  69.6270

          k =-0.1538 0.7692-0.1538 (   309 PWs)   bands (ev):

    19.6555  31.3439  34.1796  47.8113  50.4604  70.5557

          k = 0.7692-0.1538 0.7692 (   305 PWs)   bands (ev):

    22.2731  28.2123  32.8670  47.9008  52.3859  72.7284

          k = 0.6923-0.0769 0.6923 (   305 PWs)   bands (ev):

    23.4084  27.1275  32.0311  48.2544  54.6665  72.1559

          k = 0.6154 0.0000 0.6154 (   303 PWs)   bands (ev):

    21.2634  29.0578  32.6235  48.9170  57.3426  68.1892

          k = 0.0000 0.7692 0.0000 (   322 PWs)   bands (ev):

    18.9057  32.5625  35.1252  47.7189  47.7189  68.1963

          k =-0.0769 0.8462-0.0769 (   314 PWs)   bands (ev):

    21.0087  29.9915  33.8598  47.6295  48.2770  68.1816

          k = 0.8462-0.0769 0.8462 (   312 PWs)   bands (ev):

    23.4414  27.8028  32.1079  47.6657  49.7400  69.7081

          k = 0.7692 0.0000 0.7692 (   308 PWs)   bands (ev):

    24.8813  26.9063  30.7083  47.8648  51.8663  72.4077

          k = 0.0000 0.9231 0.0000 (   310 PWs)   bands (ev):

    22.8313  27.5345  34.0944  47.5437  47.5437  67.0874

          k = 0.9231 0.0000 0.9231 (   310 PWs)   bands (ev):

    24.5620  25.9419  33.3565  47.5520  48.1006  67.6428

          k =-0.1538 0.3077 0.0000 (   310 PWs)   bands (ev):

    10.5482  41.7897  47.8503  52.8661  55.1238  66.8570

          k =-0.2308 0.3846-0.0769 (   308 PWs)   bands (ev):

    12.2821  37.6152  45.3079  52.2289  55.7062  65.9638

          k =-0.3077 0.4615-0.1538 (   308 PWs)   bands (ev):

    14.5800  33.0507  43.6910  50.5295  58.0966  65.3207

          k =-0.3846 0.5385-0.2308 (   311 PWs)   bands (ev):

    17.3310  28.7154  42.7132  49.3034  60.3730  64.6317

          k = 0.5385-0.3846 0.6923 (   307 PWs)   bands (ev):

    20.2620  24.9920  42.2507  48.6667  62.1753  63.6307

          k =-0.1538 0.4615 0.0000 (   307 PWs)   bands (ev):

    12.8334  38.3654  43.7118  50.1669  51.6304  70.5407

          k =-0.2308 0.5385-0.0769 (   311 PWs)   bands (ev):

    14.8825  34.8000  40.7470  49.0927  53.8712  69.9541

          k =-0.3077 0.6154-0.1538 (   313 PWs)   bands (ev):

    17.4114  30.7383  39.1224  48.2198  56.2436  68.9006

          k = 0.6154-0.3077 0.7692 (   305 PWs)   bands (ev):

    20.2341  26.9730  38.2058  47.7939  58.4132  67.3445

          k = 0.5385-0.2308 0.6923 (   306 PWs)   bands (ev):

    21.7266  25.2695  37.7684  47.9180  60.4000  65.3157

          k = 0.4615-0.1538 0.6154 (   312 PWs)   bands (ev):

    19.2710  28.2277  37.8230  48.6374  61.8444  63.2127

          k = 0.3846-0.0769 0.5385 (   310 PWs)   bands (ev):

    16.5249  32.0235  38.6336  49.9278  59.5286  64.3091

          k = 0.3077 0.0000 0.4615 (   313 PWs)   bands (ev):

    14.1489  35.3579  40.9639  51.6007  56.7482  65.5222

          k =-0.1538 0.6154 0.0000 (   311 PWs)   bands (ev):

    15.7974  35.7025  38.0614  48.0235  50.5960  71.0074

          k =-0.2308 0.6923-0.0769 (   315 PWs)   bands (ev):

    18.0703  32.6019  35.7429  47.2855  52.6784  71.6300

          k = 0.6923-0.2308 0.8462 (   306 PWs)   bands (ev):

    20.7013  29.0611  34.5263  46.8784  54.9062  71.6805

          k = 0.6154-0.1538 0.7692 (   305 PWs)   bands (ev):

    22.9212  26.5432  33.7588  46.9658  57.1535  69.1984

          k = 0.5385-0.0769 0.6923 (   305 PWs)   bands (ev):

    21.5016  28.2112  33.5408  47.5852  59.5452  65.9734

          k = 0.4615 0.0000 0.6154 (   308 PWs)   bands (ev):

    18.9005  30.7924  34.8234  48.6621  62.0527  62.5145

          k =-0.1538 0.7692 0.0000 (   318 PWs)   bands (ev):

    19.2844  32.5822  33.8909  47.0298  49.9758  69.3837

          k = 0.7692-0.1538 0.9231 (   309 PWs)   bands (ev):

    21.6893  29.9180  32.3150  46.3358  52.0171  70.4913

          k = 0.6923-0.0769 0.8462 (   304 PWs)   bands (ev):

    24.0789  27.6334  31.0617  46.2215  54.2546  72.7823

          k = 0.6154 0.0000 0.7692 (   305 PWs)   bands (ev):

    23.7298  27.9264  30.8231  46.6877  56.7460  69.9423

          k = 0.8462-0.0769 1.0000 (   310 PWs)   bands (ev):

    23.1567  27.7373  32.9754  46.5962  49.7055  68.4058

          k = 0.7692 0.0000 0.9231 (   310 PWs)   bands (ev):

    25.0684  26.4093  31.6177  46.0257  51.8110  70.0784

          k =-0.3077 0.6154 0.0000 (   314 PWs)   bands (ev):

    17.0109  33.1049  36.8195  48.0533  55.9908  68.5614

          k = 0.6154-0.3077 0.9231 (   308 PWs)   bands (ev):

    19.5453  30.1786  34.9739  46.8943  58.7699  66.5116

          k = 0.5385-0.2308 0.8462 (   306 PWs)   bands (ev):

    22.1473  27.0306  34.4639  46.2221  61.2902  64.4361

          k = 0.6923-0.2308 1.0000 (   309 PWs)   bands (ev):

    20.3631  31.5940  32.4453  45.8202  55.2854  71.1410

          k = 0.6154-0.1538 0.9231 (   305 PWs)   bands (ev):

    22.8795  28.8511  31.4828  44.8804  58.1576  68.7473

          k = 0.5385-0.0769 0.8462 (   310 PWs)   bands (ev):

    24.0587  27.6025  31.1503  44.7908  60.9463  65.6924

          k = 0.4615 0.0000 0.7692 (   309 PWs)   bands (ev):

    21.9672  29.4998  31.7782  45.5495  62.1971  63.7327

          k = 0.6923-0.0769 1.0000 (   303 PWs)   bands (ev):

    24.0241  28.2500  30.8364  44.7290  54.9252  71.5492

          k = 0.6154 0.0000 0.9231 (   310 PWs)   bands (ev):

    25.5181  27.3716  29.8351  44.1773  57.9489  69.9388

          k = 0.5385-0.0769 1.0000 (   307 PWs)   bands (ev):

    25.0700  28.8596  28.8596  43.6041  61.8730  65.4610

     the Fermi energy is    29.4937 ev

!    total energy              =     -38.26882665 Ry

     total all-electron energy =      -484.411607 Ry
     estimated scf accuracy    <          8.0E-10 Ry
     smearing contrib. (-TS)   =       0.00027775 Ry
     internal energy E=F+TS    =     -38.26910440 Ry

     The total energy is F=E-TS. E is the sum of the following terms:
     one-electron contribution =       8.63024112 Ry
     hartree contribution      =       0.03870283 Ry
     xc contribution           =      -3.59148571 Ry
     ewald contribution        =      -8.25275173 Ry
     one-center paw contrib.   =     -35.09381092 Ry

     convergence has been achieved in   5 iterations

     Forces acting on atoms (cartesian axes, Ry/au):

     atom    1 type  1   force =     0.00000000    0.00000000    0.00000000

     Total force =     0.000000     Total SCF correction =     0.000000


     Computing stress (Cartesian axis) and pressure

          total   stress  (Ry/bohr**3)                   (kbar)     P=    13112.87
   0.08913950   0.00000000   0.00000000        13112.87        0.00        0.00
   0.00000000   0.08913950  -0.00000000            0.00    13112.87       -0.00
   0.00000000  -0.00000000   0.08913950            0.00       -0.00    13112.87


     Writing output data file ./Al.save/

     init_run     :      1.57s CPU      0.49s WALL (       1 calls)
     electrons    :     22.70s CPU      2.67s WALL (       1 calls)
     forces       :      0.49s CPU      0.05s WALL (       1 calls)
     stress       :      1.53s CPU      0.23s WALL (       1 calls)

     Called by init_run:
     wfcinit      :      0.71s CPU      0.10s WALL (       1 calls)
     potinit      :      0.09s CPU      0.10s WALL (       1 calls)
     hinit0       :      0.67s CPU      0.26s WALL (       1 calls)

     Called by electrons:
     c_bands      :     14.61s CPU      1.68s WALL (       6 calls)
     sum_band     :      2.53s CPU      0.28s WALL (       6 calls)
     v_of_rho     :      0.11s CPU      0.02s WALL (       6 calls)
     newd         :      0.08s CPU      0.03s WALL (       6 calls)
     PAW_pot      :      5.47s CPU      0.78s WALL (       6 calls)
     mix_rho      :      0.01s CPU      0.00s WALL (       6 calls)

     Called by c_bands:
     init_us_2    :      1.34s CPU      0.15s WALL (    1260 calls)
     cegterg      :     12.86s CPU      1.49s WALL (     504 calls)

     Called by *egterg:
     cdiaghg      :      1.21s CPU      0.14s WALL (    1898 calls)
     h_psi        :      8.84s CPU      1.04s WALL (    2066 calls)
     s_psi        :      1.34s CPU      0.15s WALL (    2066 calls)
     g_psi        :      0.11s CPU      0.01s WALL (    1478 calls)

     Called by h_psi:
     h_psi:calbec :      0.66s CPU      0.08s WALL (    2066 calls)
     vloc_psi     :      6.58s CPU      0.78s WALL (    2066 calls)
     add_vuspsi   :      1.29s CPU      0.15s WALL (    2066 calls)

     General routines
     calbec       :      0.86s CPU      0.10s WALL (    2990 calls)
     fft          :      0.03s CPU      0.00s WALL (      92 calls)
     ffts         :      0.00s CPU      0.00s WALL (       6 calls)
     fftw         :      5.67s CPU      0.66s WALL (   20716 calls)

     Parallel routines

     PWSCF        :     27.14s CPU      3.64s WALL


   This run was terminated on:  15:21:34  22Feb2022            

=------------------------------------------------------------------------------=
   JOB DONE.
=------------------------------------------------------------------------------=
