
     Program PWSCF v.6.7MaX starts on 22Feb2022 at 15:21:15 

     This program is part of the open-source Quantum ESPRESSO suite
     for quantum simulation of materials; please cite
         "P. Giannozzi et al., J. Phys.:Condens. Matter 21 395502 (2009);
         "P. Giannozzi et al., J. Phys.:Condens. Matter 29 465901 (2017);
          URL http://www.quantum-espresso.org", 
     in publications or presentations arising from this work. More details at
     http://www.quantum-espresso.org/quote

     Parallel version (MPI), running on     1 processors

     MPI processes distributed on     1 nodes
     Waiting for input...
     Reading input from standard input
Warning: card &CELL ignored
Warning: card 	CELL_DYNAMICS = 'BFGS' ignored
Warning: card / ignored

     Current dimensions of program PWSCF are:
     Max number of different atomic species (ntypx) = 10
     Max number of k-points (npk) =  40000
     Max angular momentum in pseudopotentials (lmaxx) =  3
     file Al.pbe-n-kjpaw_psl.1.0.0.UPF: wavefunction(s)  3S 3P renormalized

     Subspace diagonalization in iterative solution of the eigenvalue problem:
     a serial algorithm will be used


     G-vector sticks info
     --------------------
     sticks:   dense  smooth     PW     G-vecs:    dense   smooth      PW
     Sum         241     241     85                 2445     2445     531



     bravais-lattice index     =            2
     lattice parameter (alat)  =       5.0000  a.u.
     unit-cell volume          =      31.2500 (a.u.)^3
     number of atoms/cell      =            1
     number of atomic types    =            1
     number of electrons       =         3.00
     number of Kohn-Sham states=            6
     kinetic-energy cutoff     =      70.0000  Ry
     charge density cutoff     =     280.0000  Ry
     scf convergence threshold =      1.0E-08
     mixing beta               =       0.7000
     number of iterations used =            8  plain     mixing
     Exchange-correlation= SLA  PW   PBX  PBC
                           (   1   4   3   4   0   0   0)

     celldm(1)=   5.000000  celldm(2)=   0.000000  celldm(3)=   0.000000
     celldm(4)=   0.000000  celldm(5)=   0.000000  celldm(6)=   0.000000

     crystal axes: (cart. coord. in units of alat)
               a(1) = (  -0.500000   0.000000   0.500000 )  
               a(2) = (   0.000000   0.500000   0.500000 )  
               a(3) = (  -0.500000   0.500000   0.000000 )  

     reciprocal axes: (cart. coord. in units 2 pi/alat)
               b(1) = ( -1.000000 -1.000000  1.000000 )  
               b(2) = (  1.000000  1.000000  1.000000 )  
               b(3) = ( -1.000000  1.000000 -1.000000 )  


     PseudoPot. # 1 for Al read from file:
     ./Al.pbe-n-kjpaw_psl.1.0.0.UPF
     MD5 check sum: 502b6b27b9c6270cab5dd1084b96fa6d
     Pseudo is Projector augmented-wave + core cor, Zval =  3.0
     Generated using &quot;atomic&quot; code by A. Dal Corso  v.6.3
     Shape of augmentation charge: PSQ
     Using radial grid of 1135 points,  6 beta functions with: 
                l(1) =   0
                l(2) =   0
                l(3) =   1
                l(4) =   1
                l(5) =   2
                l(6) =   2
     Q(r) pseudized with 0 coefficients 


     atomic species   valence    mass     pseudopotential
        Al             3.00    26.98100     Al( 1.00)

     48 Sym. Ops., with inversion, found



   Cartesian axes

     site n.     atom                  positions (alat units)
         1           Al  tau(   1) = (   0.0000000   0.0000000   0.0000000  )

     number of k points=    29  Methfessel-Paxton smearing, width (Ry)=  0.0500
                       cart. coord. in units 2pi/alat
        k(    1) = (   0.0000000   0.0000000   0.0000000), wk =   0.0039062
        k(    2) = (  -0.1250000   0.1250000  -0.1250000), wk =   0.0312500
        k(    3) = (  -0.2500000   0.2500000  -0.2500000), wk =   0.0312500
        k(    4) = (  -0.3750000   0.3750000  -0.3750000), wk =   0.0312500
        k(    5) = (   0.5000000  -0.5000000   0.5000000), wk =   0.0156250
        k(    6) = (   0.0000000   0.2500000   0.0000000), wk =   0.0234375
        k(    7) = (  -0.1250000   0.3750000  -0.1250000), wk =   0.0937500
        k(    8) = (  -0.2500000   0.5000000  -0.2500000), wk =   0.0937500
        k(    9) = (   0.6250000  -0.3750000   0.6250000), wk =   0.0937500
        k(   10) = (   0.5000000  -0.2500000   0.5000000), wk =   0.0937500
        k(   11) = (   0.3750000  -0.1250000   0.3750000), wk =   0.0937500
        k(   12) = (   0.2500000   0.0000000   0.2500000), wk =   0.0468750
        k(   13) = (   0.0000000   0.5000000   0.0000000), wk =   0.0234375
        k(   14) = (  -0.1250000   0.6250000  -0.1250000), wk =   0.0937500
        k(   15) = (   0.7500000  -0.2500000   0.7500000), wk =   0.0937500
        k(   16) = (   0.6250000  -0.1250000   0.6250000), wk =   0.0937500
        k(   17) = (   0.5000000   0.0000000   0.5000000), wk =   0.0468750
        k(   18) = (   0.0000000   0.7500000   0.0000000), wk =   0.0234375
        k(   19) = (   0.8750000  -0.1250000   0.8750000), wk =   0.0937500
        k(   20) = (   0.7500000   0.0000000   0.7500000), wk =   0.0468750
        k(   21) = (   0.0000000  -1.0000000   0.0000000), wk =   0.0117188
        k(   22) = (  -0.2500000   0.5000000   0.0000000), wk =   0.0937500
        k(   23) = (   0.6250000  -0.3750000   0.8750000), wk =   0.1875000
        k(   24) = (   0.5000000  -0.2500000   0.7500000), wk =   0.0937500
        k(   25) = (   0.7500000  -0.2500000   1.0000000), wk =   0.0937500
        k(   26) = (   0.6250000  -0.1250000   0.8750000), wk =   0.1875000
        k(   27) = (   0.5000000   0.0000000   0.7500000), wk =   0.0937500
        k(   28) = (  -0.2500000  -1.0000000   0.0000000), wk =   0.0468750
        k(   29) = (  -0.5000000  -1.0000000   0.0000000), wk =   0.0234375

     Dense  grid:     2445 G-vectors     FFT dimensions: (  20,  20,  20)

     Estimated max dynamical RAM per process >      11.34 MB

     Initial potential from superposition of free atoms

     starting charge    2.99771, renormalised to    3.00000
     Starting wfcs are    4 randomized atomic wfcs +    2 random wfcs
     Checking if some PAW data can be deallocated... 

     total cpu time spent up to now is        0.7 secs

     Self-consistent Calculation

     iteration #  1     ecut=    70.00 Ry     beta= 0.70
     Davidson diagonalization with overlap
     ethr =  1.00E-02,  avg # of iterations =  6.5

     Threshold (ethr) on eigenvalues was too large:
     Diagonalizing with lowered threshold

     Davidson diagonalization with overlap
     ethr =  4.73E-04,  avg # of iterations =  1.2

     total cpu time spent up to now is        1.3 secs

     total energy              =     -38.26661124 Ry
     estimated scf accuracy    <       0.01416176 Ry

     iteration #  2     ecut=    70.00 Ry     beta= 0.70
     Davidson diagonalization with overlap
     ethr =  4.72E-04,  avg # of iterations =  1.9

     total cpu time spent up to now is        1.6 secs

     total energy              =     -38.26846016 Ry
     estimated scf accuracy    <       0.00167219 Ry

     iteration #  3     ecut=    70.00 Ry     beta= 0.70
     Davidson diagonalization with overlap
     ethr =  5.57E-05,  avg # of iterations =  2.7

     total cpu time spent up to now is        1.9 secs

     total energy              =     -38.26868749 Ry
     estimated scf accuracy    <       0.00000290 Ry

     iteration #  4     ecut=    70.00 Ry     beta= 0.70
     Davidson diagonalization with overlap
     ethr =  9.66E-08,  avg # of iterations =  4.0

     total cpu time spent up to now is        2.1 secs

     total energy              =     -38.26869044 Ry
     estimated scf accuracy    <       0.00000019 Ry

     iteration #  5     ecut=    70.00 Ry     beta= 0.70
     Davidson diagonalization with overlap
     ethr =  6.29E-09,  avg # of iterations =  2.0

     total cpu time spent up to now is        2.4 secs

     End of self-consistent calculation

          k = 0.0000 0.0000 0.0000 (   331 PWs)   bands (ev):

     8.0998  52.0600  52.0600  52.0600  60.6555  69.1932

          k =-0.1250 0.1250-0.1250 (   316 PWs)   bands (ev):

     9.0912  45.2236  52.1527  52.1527  63.2542  63.9839

          k =-0.2500 0.2500-0.2500 (   311 PWs)   bands (ev):

    11.9121  36.3717  51.3668  51.3668  60.0086  62.5782

          k =-0.3750 0.3750-0.3750 (   308 PWs)   bands (ev):

    16.1847  28.6346  49.7219  49.7219  58.1178  64.3706

          k = 0.5000-0.5000 0.5000 (   302 PWs)   bands (ev):

    20.5382  23.1829  48.9804  48.9804  57.6363  65.6477

          k = 0.0000 0.2500 0.0000 (   307 PWs)   bands (ev):

     9.4142  45.9061  50.6501  50.6501  56.1039  69.4903

          k =-0.1250 0.3750-0.1250 (   308 PWs)   bands (ev):

    11.6035  39.1795  48.1837  49.7135  54.5577  68.7240

          k =-0.2500 0.5000-0.2500 (   301 PWs)   bands (ev):

    15.3559  31.5017  44.7651  48.8913  57.6070  66.9046

          k = 0.6250-0.3750 0.6250 (   309 PWs)   bands (ev):

    20.0798  25.0165  42.9522  48.6430  60.1948  66.5144

          k = 0.5000-0.2500 0.5000 (   308 PWs)   bands (ev):

    18.4797  26.9883  42.5714  49.7016  62.1237  64.3050

          k = 0.3750-0.1250 0.3750 (   309 PWs)   bands (ev):

    13.9603  33.9373  43.6802  52.4894  59.4516  63.1064

          k = 0.2500 0.0000 0.2500 (   317 PWs)   bands (ev):

    10.6840  40.9079  47.0543  54.7728  57.6460  63.4199

          k = 0.0000 0.5000 0.0000 (   311 PWs)   bands (ev):

    13.0753  39.3734  43.4665  48.7241  48.7241  71.4522

          k =-0.1250 0.6250-0.1250 (   314 PWs)   bands (ev):

    16.1357  34.5463  38.4256  48.1628  50.7360  71.1733

          k = 0.7500-0.2500 0.7500 (   311 PWs)   bands (ev):

    20.3705  28.3990  35.9052  48.0471  53.9091  73.1665

          k = 0.6250-0.1250 0.6250 (   307 PWs)   bands (ev):

    21.7046  26.9410  34.7679  48.7530  57.4045  68.6415

          k = 0.5000 0.0000 0.5000 (   307 PWs)   bands (ev):

    17.4521  31.6633  36.4272  50.5635  61.1837  62.8020

          k = 0.0000 0.7500 0.0000 (   322 PWs)   bands (ev):

    18.4417  33.2511  35.3248  47.7579  47.7579  68.3997

          k = 0.8750-0.1250 0.8750 (   314 PWs)   bands (ev):

    22.0245  29.1189  32.8925  47.6497  49.1683  69.0603

          k = 0.7500 0.0000 0.7500 (   308 PWs)   bands (ev):

    24.6907  27.1036  30.6111  47.9448  52.4966  73.1865

          k = 0.0000-1.0000 0.0000 (   302 PWs)   bands (ev):

    24.4081  25.8269  33.9639  47.5253  47.5253  66.9413

          k =-0.2500 0.5000 0.0000 (   311 PWs)   bands (ev):

    14.2320  35.8015  40.9478  50.1979  54.4976  68.3352

          k = 0.6250-0.3750 0.8750 (   313 PWs)   bands (ev):

    18.2145  30.0800  37.7490  48.1507  58.7026  66.1228

          k = 0.5000-0.2500 0.7500 (   308 PWs)   bands (ev):

    22.0093  25.3784  37.1194  47.3241  61.6833  63.8456

          k = 0.7500-0.2500 1.0000 (   309 PWs)   bands (ev):

    19.4366  32.6262  33.1373  46.3958  53.1243  71.1856

          k = 0.6250-0.1250 0.8750 (   303 PWs)   bands (ev):

    23.4577  27.9530  31.6055  45.2502  57.3520  69.7177

          k = 0.5000 0.0000 0.7500 (   311 PWs)   bands (ev):

    22.0388  29.1747  31.8650  46.0897  61.6666  64.1287

          k =-0.2500-1.0000 0.0000 (   308 PWs)   bands (ev):

    25.1588  26.4395  31.5540  45.3272  52.6776  70.1574

          k =-0.5000-1.0000 0.0000 (   308 PWs)   bands (ev):

    26.0191  28.3610  28.3610  43.2830  63.7616  63.7616

     the Fermi energy is    29.3779 ev

!    total energy              =     -38.26869050 Ry

     total all-electron energy =      -484.411471 Ry
     estimated scf accuracy    <          6.5E-10 Ry
     smearing contrib. (-TS)   =       0.00028807 Ry
     internal energy E=F+TS    =     -38.26897857 Ry

     The total energy is F=E-TS. E is the sum of the following terms:
     one-electron contribution =       8.63051134 Ry
     hartree contribution      =       0.03887419 Ry
     xc contribution           =      -3.59154998 Ry
     ewald contribution        =      -8.25275173 Ry
     one-center paw contrib.   =     -35.09406238 Ry

     convergence has been achieved in   5 iterations

     Forces acting on atoms (cartesian axes, Ry/au):

     atom    1 type  1   force =     0.00000000    0.00000000    0.00000000

     Total force =     0.000000     Total SCF correction =     0.000000


     Computing stress (Cartesian axis) and pressure

          total   stress  (Ry/bohr**3)                   (kbar)     P=    13108.25
   0.08910808   0.00000000  -0.00000000        13108.25        0.00       -0.00
   0.00000000   0.08910808  -0.00000000            0.00    13108.25       -0.00
  -0.00000000  -0.00000000   0.08910808           -0.00       -0.00    13108.25


     Writing output data file ./Al.save/

     init_run     :      1.21s CPU      0.55s WALL (       1 calls)
     electrons    :     11.81s CPU      1.71s WALL (       1 calls)
     forces       :      0.13s CPU      0.02s WALL (       1 calls)
     stress       :      1.16s CPU      0.13s WALL (       1 calls)

     Called by init_run:
     wfcinit      :      0.25s CPU      0.06s WALL (       1 calls)
     potinit      :      0.10s CPU      0.10s WALL (       1 calls)
     hinit0       :      0.72s CPU      0.33s WALL (       1 calls)

     Called by electrons:
     c_bands      :      5.46s CPU      0.79s WALL (       6 calls)
     sum_band     :      1.22s CPU      0.17s WALL (       6 calls)
     v_of_rho     :      0.11s CPU      0.02s WALL (       6 calls)
     newd         :      0.10s CPU      0.04s WALL (       6 calls)
     PAW_pot      :      5.06s CPU      0.82s WALL (       6 calls)
     mix_rho      :      0.01s CPU      0.00s WALL (       6 calls)

     Called by c_bands:
     init_us_2    :      0.42s CPU      0.05s WALL (     435 calls)
     cegterg      :      4.91s CPU      0.72s WALL (     174 calls)

     Called by *egterg:
     cdiaghg      :      0.69s CPU      0.11s WALL (     676 calls)
     h_psi        :      3.43s CPU      0.53s WALL (     734 calls)
     s_psi        :      0.41s CPU      0.06s WALL (     734 calls)
     g_psi        :      0.03s CPU      0.00s WALL (     531 calls)

     Called by h_psi:
     h_psi:calbec :      1.02s CPU      0.19s WALL (     734 calls)
     vloc_psi     :      1.96s CPU      0.27s WALL (     734 calls)
     add_vuspsi   :      0.36s CPU      0.05s WALL (     734 calls)

     General routines
     calbec       :      1.28s CPU      0.23s WALL (    1053 calls)
     fft          :      0.03s CPU      0.00s WALL (      92 calls)
     ffts         :      0.00s CPU      0.00s WALL (       6 calls)
     fftw         :      1.70s CPU      0.23s WALL (    7206 calls)

     Parallel routines

     PWSCF        :     14.84s CPU      2.56s WALL


   This run was terminated on:  15:21:17  22Feb2022            

=------------------------------------------------------------------------------=
   JOB DONE.
=------------------------------------------------------------------------------=
