
     Program PWSCF v.6.7MaX starts on 22Feb2022 at 14:59:41 

     This program is part of the open-source Quantum ESPRESSO suite
     for quantum simulation of materials; please cite
         "P. Giannozzi et al., J. Phys.:Condens. Matter 21 395502 (2009);
         "P. Giannozzi et al., J. Phys.:Condens. Matter 29 465901 (2017);
          URL http://www.quantum-espresso.org", 
     in publications or presentations arising from this work. More details at
     http://www.quantum-espresso.org/quote

     Parallel version (MPI), running on     1 processors

     MPI processes distributed on     1 nodes
     Waiting for input...
     Reading input from standard input
Warning: card &CELL ignored
Warning: card 	CELL_DYNAMICS = 'BFGS' ignored
Warning: card / ignored

     Current dimensions of program PWSCF are:
     Max number of different atomic species (ntypx) = 10
     Max number of k-points (npk) =  40000
     Max angular momentum in pseudopotentials (lmaxx) =  3
     file Al.pbe-n-kjpaw_psl.1.0.0.UPF: wavefunction(s)  3S 3P renormalized

     Subspace diagonalization in iterative solution of the eigenvalue problem:
     a serial algorithm will be used


     G-vector sticks info
     --------------------
     sticks:   dense  smooth     PW     G-vecs:    dense   smooth      PW
     Sum         199     199     73                 1917     1917     387



     bravais-lattice index     =            2
     lattice parameter (alat)  =       5.0000  a.u.
     unit-cell volume          =      31.2500 (a.u.)^3
     number of atoms/cell      =            1
     number of atomic types    =            1
     number of electrons       =         3.00
     number of Kohn-Sham states=            6
     kinetic-energy cutoff     =      60.0000  Ry
     charge density cutoff     =     240.0000  Ry
     scf convergence threshold =      1.0E-08
     mixing beta               =       0.7000
     number of iterations used =            8  plain     mixing
     Exchange-correlation= SLA  PW   PBX  PBC
                           (   1   4   3   4   0   0   0)

     celldm(1)=   5.000000  celldm(2)=   0.000000  celldm(3)=   0.000000
     celldm(4)=   0.000000  celldm(5)=   0.000000  celldm(6)=   0.000000

     crystal axes: (cart. coord. in units of alat)
               a(1) = (  -0.500000   0.000000   0.500000 )  
               a(2) = (   0.000000   0.500000   0.500000 )  
               a(3) = (  -0.500000   0.500000   0.000000 )  

     reciprocal axes: (cart. coord. in units 2 pi/alat)
               b(1) = ( -1.000000 -1.000000  1.000000 )  
               b(2) = (  1.000000  1.000000  1.000000 )  
               b(3) = ( -1.000000  1.000000 -1.000000 )  


     PseudoPot. # 1 for Al read from file:
     ./Al.pbe-n-kjpaw_psl.1.0.0.UPF
     MD5 check sum: 502b6b27b9c6270cab5dd1084b96fa6d
     Pseudo is Projector augmented-wave + core cor, Zval =  3.0
     Generated using &quot;atomic&quot; code by A. Dal Corso  v.6.3
     Shape of augmentation charge: PSQ
     Using radial grid of 1135 points,  6 beta functions with: 
                l(1) =   0
                l(2) =   0
                l(3) =   1
                l(4) =   1
                l(5) =   2
                l(6) =   2
     Q(r) pseudized with 0 coefficients 


     atomic species   valence    mass     pseudopotential
        Al             3.00    26.98100     Al( 1.00)

     48 Sym. Ops., with inversion, found



   Cartesian axes

     site n.     atom                  positions (alat units)
         1           Al  tau(   1) = (   0.0000000   0.0000000   0.0000000  )

     number of k points=     3  Methfessel-Paxton smearing, width (Ry)=  0.0500
                       cart. coord. in units 2pi/alat
        k(    1) = (   0.0000000   0.0000000   0.0000000), wk =   0.2500000
        k(    2) = (   0.5000000  -0.5000000   0.5000000), wk =   1.0000000
        k(    3) = (   0.0000000  -1.0000000   0.0000000), wk =   0.7500000

     Dense  grid:     1917 G-vectors     FFT dimensions: (  18,  18,  18)

     Estimated max dynamical RAM per process >       8.48 MB

     Initial potential from superposition of free atoms

     starting charge    2.99771, renormalised to    3.00000
     Starting wfcs are    4 randomized atomic wfcs +    2 random wfcs
     Checking if some PAW data can be deallocated... 

     total cpu time spent up to now is        0.5 secs

     Self-consistent Calculation

     iteration #  1     ecut=    60.00 Ry     beta= 0.70
     Davidson diagonalization with overlap
     ethr =  1.00E-02,  avg # of iterations =  6.7

     Threshold (ethr) on eigenvalues was too large:
     Diagonalizing with lowered threshold

     Davidson diagonalization with overlap
     ethr =  9.66E-04,  avg # of iterations =  1.0

     total cpu time spent up to now is        0.7 secs

     total energy              =     -38.28355206 Ry
     estimated scf accuracy    <       0.02845673 Ry

     iteration #  2     ecut=    60.00 Ry     beta= 0.70
     Davidson diagonalization with overlap
     ethr =  9.49E-04,  avg # of iterations =  2.3

     total cpu time spent up to now is        0.9 secs

     total energy              =     -38.28556114 Ry
     estimated scf accuracy    <       0.00213653 Ry

     iteration #  3     ecut=    60.00 Ry     beta= 0.70
     Davidson diagonalization with overlap
     ethr =  7.12E-05,  avg # of iterations =  2.0

     total cpu time spent up to now is        1.1 secs

     total energy              =     -38.28584139 Ry
     estimated scf accuracy    <       0.00002302 Ry

     iteration #  4     ecut=    60.00 Ry     beta= 0.70
     Davidson diagonalization with overlap
     ethr =  7.67E-07,  avg # of iterations =  3.0

     total cpu time spent up to now is        1.2 secs

     total energy              =     -38.28585476 Ry
     estimated scf accuracy    <       0.00000221 Ry

     iteration #  5     ecut=    60.00 Ry     beta= 0.70
     Davidson diagonalization with overlap
     ethr =  7.35E-08,  avg # of iterations =  1.0

     total cpu time spent up to now is        1.4 secs

     total energy              =     -38.28585483 Ry
     estimated scf accuracy    <       0.00000004 Ry

     iteration #  6     ecut=    60.00 Ry     beta= 0.70
     Davidson diagonalization with overlap
     ethr =  1.23E-09,  avg # of iterations =  2.3

     total cpu time spent up to now is        1.5 secs

     End of self-consistent calculation

          k = 0.0000 0.0000 0.0000 (   259 PWs)   bands (ev):

     8.0671  51.9517  51.9517  51.9517  60.5476  69.2454

          k = 0.5000-0.5000 0.5000 (   242 PWs)   bands (ev):

    20.4907  23.0725  48.9690  48.9690  57.7918  65.4126

          k = 0.0000-1.0000 0.0000 (   230 PWs)   bands (ev):

    24.5749  25.6229  33.8610  47.3867  47.3867  66.7578

     the Fermi energy is    25.0987 ev

!    total energy              =     -38.28585484 Ry

     total all-electron energy =      -484.428635 Ry
     estimated scf accuracy    <          4.6E-10 Ry
     smearing contrib. (-TS)   =       0.00110641 Ry
     internal energy E=F+TS    =     -38.28696126 Ry

     The total energy is F=E-TS. E is the sum of the following terms:
     one-electron contribution =       8.50806562 Ry
     hartree contribution      =       0.05291489 Ry
     xc contribution           =      -3.58368875 Ry
     ewald contribution        =      -8.25275173 Ry
     one-center paw contrib.   =     -35.01150128 Ry

     convergence has been achieved in   6 iterations

     Forces acting on atoms (cartesian axes, Ry/au):

     atom    1 type  1   force =     0.00000000    0.00000000    0.00000000

     Total force =     0.000000     Total SCF correction =     0.000000


     Computing stress (Cartesian axis) and pressure

          total   stress  (Ry/bohr**3)                   (kbar)     P=    11866.54
   0.08066708  -0.00000000  -0.00000000        11866.54       -0.00       -0.00
  -0.00000000   0.08066708   0.00000000           -0.00    11866.54        0.00
  -0.00000000   0.00000000   0.08066708           -0.00        0.00    11866.54


     Writing output data file ./Al.save/

     init_run     :      1.22s CPU      0.43s WALL (       1 calls)
     electrons    :      7.67s CPU      1.01s WALL (       1 calls)
     forces       :      0.09s CPU      0.01s WALL (       1 calls)
     stress       :      0.50s CPU      0.06s WALL (       1 calls)

     Called by init_run:
     wfcinit      :      0.07s CPU      0.01s WALL (       1 calls)
     potinit      :      0.10s CPU      0.10s WALL (       1 calls)
     hinit0       :      0.86s CPU      0.27s WALL (       1 calls)

     Called by electrons:
     c_bands      :      0.82s CPU      0.10s WALL (       7 calls)
     sum_band     :      0.40s CPU      0.06s WALL (       7 calls)
     v_of_rho     :      0.15s CPU      0.02s WALL (       7 calls)
     newd         :      0.05s CPU      0.02s WALL (       7 calls)
     PAW_pot      :      6.29s CPU      0.92s WALL (       7 calls)
     mix_rho      :      0.01s CPU      0.00s WALL (       7 calls)

     Called by c_bands:
     init_us_2    :      0.04s CPU      0.00s WALL (      51 calls)
     cegterg      :      0.76s CPU      0.09s WALL (      21 calls)

     Called by *egterg:
     cdiaghg      :      0.04s CPU      0.01s WALL (      73 calls)
     h_psi        :      0.72s CPU      0.09s WALL (      79 calls)
     s_psi        :      0.01s CPU      0.00s WALL (      79 calls)
     g_psi        :      0.00s CPU      0.00s WALL (      55 calls)

     Called by h_psi:
     h_psi:calbec :      0.01s CPU      0.00s WALL (      79 calls)
     vloc_psi     :      0.69s CPU      0.08s WALL (      79 calls)
     add_vuspsi   :      0.01s CPU      0.00s WALL (      79 calls)

     General routines
     calbec       :      0.02s CPU      0.00s WALL (     115 calls)
     fft          :      0.10s CPU      0.02s WALL (     103 calls)
     ffts         :      0.01s CPU      0.00s WALL (       7 calls)
     fftw         :      0.76s CPU      0.09s WALL (     816 calls)

     Parallel routines

     PWSCF        :      9.75s CPU      1.63s WALL


   This run was terminated on:  14:59:43  22Feb2022            

=------------------------------------------------------------------------------=
   JOB DONE.
=------------------------------------------------------------------------------=
