
     Program PWSCF v.6.7MaX starts on 22Feb2022 at 15:21:26 

     This program is part of the open-source Quantum ESPRESSO suite
     for quantum simulation of materials; please cite
         "P. Giannozzi et al., J. Phys.:Condens. Matter 21 395502 (2009);
         "P. Giannozzi et al., J. Phys.:Condens. Matter 29 465901 (2017);
          URL http://www.quantum-espresso.org", 
     in publications or presentations arising from this work. More details at
     http://www.quantum-espresso.org/quote

     Parallel version (MPI), running on     1 processors

     MPI processes distributed on     1 nodes
     Waiting for input...
     Reading input from standard input
Warning: card &CELL ignored
Warning: card 	CELL_DYNAMICS = 'BFGS' ignored
Warning: card / ignored

     Current dimensions of program PWSCF are:
     Max number of different atomic species (ntypx) = 10
     Max number of k-points (npk) =  40000
     Max angular momentum in pseudopotentials (lmaxx) =  3
     file Al.pbe-n-kjpaw_psl.1.0.0.UPF: wavefunction(s)  3S 3P renormalized

     Subspace diagonalization in iterative solution of the eigenvalue problem:
     a serial algorithm will be used


     G-vector sticks info
     --------------------
     sticks:   dense  smooth     PW     G-vecs:    dense   smooth      PW
     Sum         241     241     85                 2445     2445     531



     bravais-lattice index     =            2
     lattice parameter (alat)  =       5.0000  a.u.
     unit-cell volume          =      31.2500 (a.u.)^3
     number of atoms/cell      =            1
     number of atomic types    =            1
     number of electrons       =         3.00
     number of Kohn-Sham states=            6
     kinetic-energy cutoff     =      70.0000  Ry
     charge density cutoff     =     280.0000  Ry
     scf convergence threshold =      1.0E-08
     mixing beta               =       0.7000
     number of iterations used =            8  plain     mixing
     Exchange-correlation= SLA  PW   PBX  PBC
                           (   1   4   3   4   0   0   0)

     celldm(1)=   5.000000  celldm(2)=   0.000000  celldm(3)=   0.000000
     celldm(4)=   0.000000  celldm(5)=   0.000000  celldm(6)=   0.000000

     crystal axes: (cart. coord. in units of alat)
               a(1) = (  -0.500000   0.000000   0.500000 )  
               a(2) = (   0.000000   0.500000   0.500000 )  
               a(3) = (  -0.500000   0.500000   0.000000 )  

     reciprocal axes: (cart. coord. in units 2 pi/alat)
               b(1) = ( -1.000000 -1.000000  1.000000 )  
               b(2) = (  1.000000  1.000000  1.000000 )  
               b(3) = ( -1.000000  1.000000 -1.000000 )  


     PseudoPot. # 1 for Al read from file:
     ./Al.pbe-n-kjpaw_psl.1.0.0.UPF
     MD5 check sum: 502b6b27b9c6270cab5dd1084b96fa6d
     Pseudo is Projector augmented-wave + core cor, Zval =  3.0
     Generated using &quot;atomic&quot; code by A. Dal Corso  v.6.3
     Shape of augmentation charge: PSQ
     Using radial grid of 1135 points,  6 beta functions with: 
                l(1) =   0
                l(2) =   0
                l(3) =   1
                l(4) =   1
                l(5) =   2
                l(6) =   2
     Q(r) pseudized with 0 coefficients 


     atomic species   valence    mass     pseudopotential
        Al             3.00    26.98100     Al( 1.00)

     48 Sym. Ops., with inversion, found



   Cartesian axes

     site n.     atom                  positions (alat units)
         1           Al  tau(   1) = (   0.0000000   0.0000000   0.0000000  )

     number of k points=    72  Methfessel-Paxton smearing, width (Ry)=  0.0500
                       cart. coord. in units 2pi/alat
        k(    1) = (   0.0000000   0.0000000   0.0000000), wk =   0.0011574
        k(    2) = (  -0.0833333   0.0833333  -0.0833333), wk =   0.0092593
        k(    3) = (  -0.1666667   0.1666667  -0.1666667), wk =   0.0092593
        k(    4) = (  -0.2500000   0.2500000  -0.2500000), wk =   0.0092593
        k(    5) = (  -0.3333333   0.3333333  -0.3333333), wk =   0.0092593
        k(    6) = (  -0.4166667   0.4166667  -0.4166667), wk =   0.0092593
        k(    7) = (   0.5000000  -0.5000000   0.5000000), wk =   0.0046296
        k(    8) = (   0.0000000   0.1666667   0.0000000), wk =   0.0069444
        k(    9) = (  -0.0833333   0.2500000  -0.0833333), wk =   0.0277778
        k(   10) = (  -0.1666667   0.3333333  -0.1666667), wk =   0.0277778
        k(   11) = (  -0.2500000   0.4166667  -0.2500000), wk =   0.0277778
        k(   12) = (  -0.3333333   0.5000000  -0.3333333), wk =   0.0277778
        k(   13) = (   0.5833333  -0.4166667   0.5833333), wk =   0.0277778
        k(   14) = (   0.5000000  -0.3333333   0.5000000), wk =   0.0277778
        k(   15) = (   0.4166667  -0.2500000   0.4166667), wk =   0.0277778
        k(   16) = (   0.3333333  -0.1666667   0.3333333), wk =   0.0277778
        k(   17) = (   0.2500000  -0.0833333   0.2500000), wk =   0.0277778
        k(   18) = (   0.1666667  -0.0000000   0.1666667), wk =   0.0138889
        k(   19) = (   0.0000000   0.3333333   0.0000000), wk =   0.0069444
        k(   20) = (  -0.0833333   0.4166667  -0.0833333), wk =   0.0277778
        k(   21) = (  -0.1666667   0.5000000  -0.1666667), wk =   0.0277778
        k(   22) = (  -0.2500000   0.5833333  -0.2500000), wk =   0.0277778
        k(   23) = (   0.6666667  -0.3333333   0.6666667), wk =   0.0277778
        k(   24) = (   0.5833333  -0.2500000   0.5833333), wk =   0.0277778
        k(   25) = (   0.5000000  -0.1666667   0.5000000), wk =   0.0277778
        k(   26) = (   0.4166667  -0.0833333   0.4166667), wk =   0.0277778
        k(   27) = (   0.3333333   0.0000000   0.3333333), wk =   0.0138889
        k(   28) = (   0.0000000   0.5000000   0.0000000), wk =   0.0069444
        k(   29) = (  -0.0833333   0.5833333  -0.0833333), wk =   0.0277778
        k(   30) = (  -0.1666667   0.6666667  -0.1666667), wk =   0.0277778
        k(   31) = (   0.7500000  -0.2500000   0.7500000), wk =   0.0277778
        k(   32) = (   0.6666667  -0.1666667   0.6666667), wk =   0.0277778
        k(   33) = (   0.5833333  -0.0833333   0.5833333), wk =   0.0277778
        k(   34) = (   0.5000000   0.0000000   0.5000000), wk =   0.0138889
        k(   35) = (   0.0000000   0.6666667   0.0000000), wk =   0.0069444
        k(   36) = (  -0.0833333   0.7500000  -0.0833333), wk =   0.0277778
        k(   37) = (   0.8333333  -0.1666667   0.8333333), wk =   0.0277778
        k(   38) = (   0.7500000  -0.0833333   0.7500000), wk =   0.0277778
        k(   39) = (   0.6666667  -0.0000000   0.6666667), wk =   0.0138889
        k(   40) = (   0.0000000   0.8333333   0.0000000), wk =   0.0069444
        k(   41) = (   0.9166667  -0.0833333   0.9166667), wk =   0.0277778
        k(   42) = (   0.8333333   0.0000000   0.8333333), wk =   0.0138889
        k(   43) = (   0.0000000  -1.0000000   0.0000000), wk =   0.0034722
        k(   44) = (  -0.1666667   0.3333333   0.0000000), wk =   0.0277778
        k(   45) = (  -0.2500000   0.4166667  -0.0833333), wk =   0.0555556
        k(   46) = (  -0.3333333   0.5000000  -0.1666667), wk =   0.0555556
        k(   47) = (   0.5833333  -0.4166667   0.7500000), wk =   0.0555556
        k(   48) = (   0.5000000  -0.3333333   0.6666667), wk =   0.0277778
        k(   49) = (  -0.1666667   0.5000000   0.0000000), wk =   0.0277778
        k(   50) = (  -0.2500000   0.5833333  -0.0833333), wk =   0.0555556
        k(   51) = (   0.6666667  -0.3333333   0.8333333), wk =   0.0555556
        k(   52) = (   0.5833333  -0.2500000   0.7500000), wk =   0.0555556
        k(   53) = (   0.5000000  -0.1666667   0.6666667), wk =   0.0555556
        k(   54) = (   0.4166667  -0.0833333   0.5833333), wk =   0.0555556
        k(   55) = (   0.3333333   0.0000000   0.5000000), wk =   0.0277778
        k(   56) = (  -0.1666667   0.6666667  -0.0000000), wk =   0.0277778
        k(   57) = (   0.7500000  -0.2500000   0.9166667), wk =   0.0555556
        k(   58) = (   0.6666667  -0.1666667   0.8333333), wk =   0.0555556
        k(   59) = (   0.5833333  -0.0833333   0.7500000), wk =   0.0555556
        k(   60) = (   0.5000000   0.0000000   0.6666667), wk =   0.0277778
        k(   61) = (   0.8333333  -0.1666667   1.0000000), wk =   0.0277778
        k(   62) = (   0.7500000  -0.0833333   0.9166667), wk =   0.0555556
        k(   63) = (   0.6666667   0.0000000   0.8333333), wk =   0.0277778
        k(   64) = (  -0.1666667  -1.0000000  -0.0000000), wk =   0.0138889
        k(   65) = (   0.6666667  -0.3333333   1.0000000), wk =   0.0277778
        k(   66) = (   0.5833333  -0.2500000   0.9166667), wk =   0.0555556
        k(   67) = (   0.5000000  -0.1666667   0.8333333), wk =   0.0277778
        k(   68) = (   0.6666667  -0.1666667   1.0000000), wk =   0.0277778
        k(   69) = (   0.5833333  -0.0833333   0.9166667), wk =   0.0555556
        k(   70) = (   0.5000000   0.0000000   0.8333333), wk =   0.0277778
        k(   71) = (  -0.3333333  -1.0000000   0.0000000), wk =   0.0138889
        k(   72) = (  -0.5000000  -1.0000000   0.0000000), wk =   0.0069444

     Dense  grid:     2445 G-vectors     FFT dimensions: (  20,  20,  20)

     Estimated max dynamical RAM per process >      12.56 MB

     Initial potential from superposition of free atoms

     starting charge    2.99771, renormalised to    3.00000
     Starting wfcs are    4 randomized atomic wfcs +    2 random wfcs
     Checking if some PAW data can be deallocated... 

     total cpu time spent up to now is        0.6 secs

     Self-consistent Calculation

     iteration #  1     ecut=    70.00 Ry     beta= 0.70
     Davidson diagonalization with overlap
     ethr =  1.00E-02,  avg # of iterations =  6.2

     Threshold (ethr) on eigenvalues was too large:
     Diagonalizing with lowered threshold

     Davidson diagonalization with overlap
     ethr =  4.65E-04,  avg # of iterations =  1.6

     total cpu time spent up to now is        1.6 secs

     total energy              =     -38.26687571 Ry
     estimated scf accuracy    <       0.01394650 Ry

     iteration #  2     ecut=    70.00 Ry     beta= 0.70
     Davidson diagonalization with overlap
     ethr =  4.65E-04,  avg # of iterations =  1.9

     total cpu time spent up to now is        1.9 secs

     total energy              =     -38.26875052 Ry
     estimated scf accuracy    <       0.00166136 Ry

     iteration #  3     ecut=    70.00 Ry     beta= 0.70
     Davidson diagonalization with overlap
     ethr =  5.54E-05,  avg # of iterations =  2.5

     total cpu time spent up to now is        2.4 secs

     total energy              =     -38.26897973 Ry
     estimated scf accuracy    <       0.00000239 Ry

     iteration #  4     ecut=    70.00 Ry     beta= 0.70
     Davidson diagonalization with overlap
     c_bands:  1 eigenvalues not converged
     ethr =  7.98E-08,  avg # of iterations =  3.5

     total cpu time spent up to now is        2.8 secs

     total energy              =     -38.26898200 Ry
     estimated scf accuracy    <       0.00000015 Ry

     iteration #  5     ecut=    70.00 Ry     beta= 0.70
     Davidson diagonalization with overlap
     ethr =  4.89E-09,  avg # of iterations =  1.9

     total cpu time spent up to now is        3.2 secs

     End of self-consistent calculation

          k = 0.0000 0.0000 0.0000 (   331 PWs)   bands (ev):

     8.0984  52.0612  52.0612  52.0612  60.6604  69.1896

          k =-0.0833 0.0833-0.0833 (   316 PWs)   bands (ev):

     8.5424  48.2116  52.1329  52.1329  63.3145  65.3770

          k =-0.1667 0.1667-0.1667 (   311 PWs)   bands (ev):

     9.8423  42.1934  52.0669  52.0669  62.1892  63.0180

          k =-0.2500 0.2500-0.2500 (   311 PWs)   bands (ev):

    11.9106  36.3724  51.3668  51.3668  60.0053  62.5785

          k =-0.3333 0.3333-0.3333 (   308 PWs)   bands (ev):

    14.6265  31.0678  50.2379  50.2379  58.5537  63.6424

          k =-0.4167 0.4167-0.4167 (   314 PWs)   bands (ev):

    17.8370  26.3666  49.3192  49.3192  57.8334  65.0289

          k = 0.5000-0.5000 0.5000 (   302 PWs)   bands (ev):

    20.5357  23.1840  48.9796  48.9796  57.6329  65.6485

          k = 0.0000 0.1667 0.0000 (   315 PWs)   bands (ev):

     8.6889  48.4647  51.3408  51.3408  60.6785  65.4484

          k =-0.0833 0.2500-0.0833 (   311 PWs)   bands (ev):

     9.6991  43.8863  50.7794  51.2913  57.3658  66.9763

          k =-0.1667 0.3333-0.1667 (   310 PWs)   bands (ev):

    11.5038  38.2933  49.8633  50.1886  57.4392  64.9194

          k =-0.2500 0.4167-0.2500 (   306 PWs)   bands (ev):

    13.9930  32.9453  47.8746  49.5037  59.1739  63.4457

          k =-0.3333 0.5000-0.3333 (   306 PWs)   bands (ev):

    17.0292  28.1055  46.3761  48.9467  60.4841  63.4002

          k = 0.5833-0.4167 0.5833 (   311 PWs)   bands (ev):

    20.2364  24.1026  45.5279  48.8167  60.8995  64.3020

          k = 0.5000-0.3333 0.5000 (   311 PWs)   bands (ev):

    19.2255  25.2768  45.3180  49.3262  61.2067  64.9945

          k = 0.4167-0.2500 0.4167 (   311 PWs)   bands (ev):

    15.9667  29.6628  45.7078  50.5665  61.6509  62.4380

          k = 0.3333-0.1667 0.3333 (   308 PWs)   bands (ev):

    13.0961  34.6649  46.6404  52.4361  59.7932  62.2368

          k = 0.2500-0.0833 0.2500 (   312 PWs)   bands (ev):

    10.8212  40.0299  48.0414  53.9468  58.6532  62.9078

          k = 0.1667-0.0000 0.1667 (   315 PWs)   bands (ev):

     9.2701  45.0813  49.9866  53.2689  61.1108  64.0896

          k = 0.0000 0.3333 0.0000 (   307 PWs)   bands (ev):

    10.4006  43.4897  49.9324  49.9324  51.6522  71.1714

          k =-0.0833 0.4167-0.0833 (   304 PWs)   bands (ev):

    11.9001  39.8189  46.6130  49.3189  51.8105  71.1247

          k =-0.1667 0.5000-0.1667 (   313 PWs)   bands (ev):

    14.1059  35.0026  43.6026  48.8154  54.0081  70.6742

          k =-0.2500 0.5833-0.2500 (   314 PWs)   bands (ev):

    16.8940  30.2598  41.6413  48.4656  56.1827  70.2412

          k = 0.6667-0.3333 0.6667 (   307 PWs)   bands (ev):

    20.0307  26.0866  40.4286  48.4405  58.1542  69.1992

          k = 0.5833-0.2500 0.5833 (   307 PWs)   bands (ev):

    20.9376  25.0663  39.8391  48.9363  60.0222  66.9140

          k = 0.5000-0.1667 0.5000 (   308 PWs)   bands (ev):

    17.9146  28.8538  39.9024  50.1097  61.7314  63.5782

          k = 0.4167-0.0833 0.4167 (   309 PWs)   bands (ev):

    14.9838  33.2711  40.8650  52.0566  59.9877  62.9610

          k = 0.3333 0.0000 0.3333 (   311 PWs)   bands (ev):

    12.5710  37.2518  43.4455  54.7117  56.8726  63.4486

          k = 0.0000 0.5000 0.0000 (   311 PWs)   bands (ev):

    13.0738  39.3759  43.4638  48.7238  48.7238  71.4511

          k =-0.0833 0.5833-0.0833 (   310 PWs)   bands (ev):

    14.9570  36.5518  39.7567  48.3108  49.7444  70.9667

          k =-0.1667 0.6667-0.1667 (   311 PWs)   bands (ev):

    17.4473  32.4265  37.3980  48.0596  51.7845  71.7314

          k = 0.7500-0.2500 0.7500 (   311 PWs)   bands (ev):

    20.3685  28.3994  35.9041  48.0463  53.9096  73.1681

          k = 0.6667-0.1667 0.6667 (   307 PWs)   bands (ev):

    22.5046  25.9921  34.9808  48.3998  56.1756  70.4783

          k = 0.5833-0.0833 0.5833 (   303 PWs)   bands (ev):

    20.3050  28.6070  34.8045  49.2337  58.6843  66.6573

          k = 0.5000 0.0000 0.5000 (   307 PWs)   bands (ev):

    17.4506  31.6648  36.4246  50.5625  61.1840  62.8035

          k = 0.0000 0.6667 0.0000 (   310 PWs)   bands (ev):

    16.5020  36.3823  36.3824  47.9745  47.9745  69.3817

          k =-0.0833 0.7500-0.0833 (   316 PWs)   bands (ev):

    18.6666  33.0977  34.6840  47.7801  48.7129  69.1089

          k = 0.8333-0.1667 0.8333 (   311 PWs)   bands (ev):

    21.3214  29.8575  32.8732  47.7497  50.4404  70.5112

          k = 0.7500-0.0833 0.7500 (   304 PWs)   bands (ev):

    23.8502  27.3344  31.4675  47.9496  52.6597  73.2738

          k = 0.6667-0.0000 0.6667 (   309 PWs)   bands (ev):

    22.8549  28.1891  31.4152  48.4465  55.4504  70.8869

          k = 0.0000 0.8333 0.0000 (   322 PWs)   bands (ev):

    20.5025  30.3645  34.5719  47.6207  47.6207  67.6155

          k = 0.9167-0.0833 0.9167 (   308 PWs)   bands (ev):

    22.8562  27.8349  33.4062  47.5788  48.2527  67.9214

          k = 0.8333 0.0000 0.8333 (   310 PWs)   bands (ev):

    24.9561  26.3785  31.6673  47.6771  49.9794  70.0182

          k = 0.0000-1.0000 0.0000 (   302 PWs)   bands (ev):

    24.4029  25.8282  33.9666  47.5245  47.5245  66.9404

          k =-0.1667 0.3333 0.0000 (   312 PWs)   bands (ev):

    10.9564  40.8870  47.0436  53.0255  54.2803  67.0124

          k =-0.2500 0.4167-0.0833 (   308 PWs)   bands (ev):

    12.9607  36.4624  44.2182  51.6810  55.8817  66.1885

          k =-0.3333 0.5000-0.1667 (   310 PWs)   bands (ev):

    15.5944  31.6415  42.6024  49.9517  58.5878  65.4655

          k = 0.5833-0.4167 0.7500 (   309 PWs)   bands (ev):

    18.6930  27.1660  41.7513  48.8557  60.9729  64.4614

          k = 0.5000-0.3333 0.6667 (   310 PWs)   bands (ev):

    21.1785  24.2207  41.4849  48.4799  62.4964  63.3634

          k =-0.1667 0.5000 0.0000 (   309 PWs)   bands (ev):

    13.5933  37.3890  42.1878  49.5449  51.7180  71.0488

          k =-0.2500 0.5833-0.0833 (   313 PWs)   bands (ev):

    15.9374  33.6409  39.2115  48.4875  54.1599  70.3349

          k = 0.6667-0.3333 0.8333 (   311 PWs)   bands (ev):

    18.7914  29.4044  37.7303  47.7045  56.7004  68.8430

          k = 0.5833-0.2500 0.7500 (   309 PWs)   bands (ev):

    21.6753  25.8677  36.9624  47.4945  59.0348  66.7773

          k = 0.5000-0.1667 0.6667 (   305 PWs)   bands (ev):

    20.7804  26.9428  36.7336  47.9630  61.2112  64.1675

          k = 0.4167-0.0833 0.5833 (   311 PWs)   bands (ev):

    17.7919  30.7948  37.2729  49.1041  60.6463  63.7066

          k = 0.3333 0.0000 0.5000 (   309 PWs)   bands (ev):

    15.1004  34.2673  39.5205  50.7329  57.5488  65.4012

          k =-0.1667 0.6667-0.0000 (   310 PWs)   bands (ev):

    16.9779  34.8069  36.1350  47.5618  50.7109  70.6116

          k = 0.7500-0.2500 0.9167 (   312 PWs)   bands (ev):

    19.5430  31.4382  34.1244  46.7487  53.0362  71.5367

          k = 0.6667-0.1667 0.8333 (   307 PWs)   bands (ev):

    22.3691  27.9724  33.0393  46.4640  55.4912  71.4394

          k = 0.5833-0.0833 0.7500 (   307 PWs)   bands (ev):

    23.0133  27.3655  32.4404  46.8366  58.0662  68.1111

          k = 0.5000 0.0000 0.6667 (   307 PWs)   bands (ev):

    20.4190  29.8154  33.3327  47.8050  60.8688  64.2346

          k = 0.8333-0.1667 1.0000 (   314 PWs)   bands (ev):

    20.9218  30.4941  33.2297  46.6682  50.1758  69.0720

          k = 0.7500-0.0833 0.9167 (   312 PWs)   bands (ev):

    23.5559  28.1235  31.5492  45.9429  52.5118  70.6669

          k = 0.6667 0.0000 0.8333 (   300 PWs)   bands (ev):

    24.8864  27.2395  30.3977  46.0461  55.1015  72.7400

          k =-0.1667-1.0000-0.0000 (   308 PWs)   bands (ev):

    24.7667  26.0982  32.6996  46.3946  50.0170  68.4928

          k = 0.6667-0.3333 1.0000 (   311 PWs)   bands (ev):

    18.3439  32.1150  35.1500  47.1682  56.7813  68.3442

          k = 0.5833-0.2500 0.9167 (   307 PWs)   bands (ev):

    21.1371  29.0906  33.5697  46.0052  59.9072  65.8493

          k = 0.5000-0.1667 0.8333 (   312 PWs)   bands (ev):

    23.2025  26.7194  33.3058  45.5686  62.1723  63.8582

          k = 0.6667-0.1667 1.0000 (   309 PWs)   bands (ev):

    22.0821  30.6638  30.8210  45.0201  56.1532  70.9738

          k = 0.5833-0.0833 0.9167 (   305 PWs)   bands (ev):

    24.5396  28.0183  30.2663  44.2151  59.4394  67.8432

          k = 0.5000 0.0000 0.8333 (   311 PWs)   bands (ev):

    23.6630  28.7229  30.4504  44.6188  62.6323  63.9488

          k =-0.3333-1.0000 0.0000 (   308 PWs)   bands (ev):

    25.5672  26.9287  30.3894  44.2954  55.9392  72.1428

          k =-0.5000-1.0000 0.0000 (   308 PWs)   bands (ev):

    26.0136  28.3625  28.3625  43.2825  63.7623  63.7623

     the Fermi energy is    29.5545 ev

!    total energy              =     -38.26898203 Ry

     total all-electron energy =      -484.411762 Ry
     estimated scf accuracy    <          1.1E-09 Ry
     smearing contrib. (-TS)   =       0.00041680 Ry
     internal energy E=F+TS    =     -38.26939883 Ry

     The total energy is F=E-TS. E is the sum of the following terms:
     one-electron contribution =       8.63042684 Ry
     hartree contribution      =       0.03859863 Ry
     xc contribution           =      -3.59152492 Ry
     ewald contribution        =      -8.25275173 Ry
     one-center paw contrib.   =     -35.09414765 Ry

     convergence has been achieved in   5 iterations

     Forces acting on atoms (cartesian axes, Ry/au):

     atom    1 type  1   force =     0.00000000    0.00000000    0.00000000

     Total force =     0.000000     Total SCF correction =     0.000000


     Computing stress (Cartesian axis) and pressure

          total   stress  (Ry/bohr**3)                   (kbar)     P=    13120.53
   0.08919153   0.00000000   0.00000000        13120.53        0.00        0.00
   0.00000000   0.08919153  -0.00000000            0.00    13120.53       -0.00
   0.00000000  -0.00000000   0.08919153            0.00       -0.00    13120.53


     Writing output data file ./Al.save/

     init_run     :      1.50s CPU      0.50s WALL (       1 calls)
     electrons    :     20.82s CPU      2.57s WALL (       1 calls)
     forces       :      0.41s CPU      0.03s WALL (       1 calls)
     stress       :      1.55s CPU      0.21s WALL (       1 calls)

     Called by init_run:
     wfcinit      :      0.64s CPU      0.10s WALL (       1 calls)
     potinit      :      0.10s CPU      0.10s WALL (       1 calls)
     hinit0       :      0.68s CPU      0.26s WALL (       1 calls)

     Called by electrons:
     c_bands      :     13.21s CPU      1.59s WALL (       6 calls)
     sum_band     :      2.20s CPU      0.26s WALL (       6 calls)
     v_of_rho     :      0.12s CPU      0.02s WALL (       6 calls)
     newd         :      0.05s CPU      0.02s WALL (       6 calls)
     PAW_pot      :      5.29s CPU      0.78s WALL (       6 calls)
     mix_rho      :      0.01s CPU      0.00s WALL (       6 calls)

     Called by c_bands:
     init_us_2    :      1.14s CPU      0.13s WALL (    1080 calls)
     cegterg      :     11.71s CPU      1.42s WALL (     432 calls)

     Called by *egterg:
     cdiaghg      :      1.21s CPU      0.15s WALL (    1626 calls)
     h_psi        :      8.05s CPU      0.99s WALL (    1770 calls)
     s_psi        :      1.24s CPU      0.15s WALL (    1770 calls)
     g_psi        :      0.10s CPU      0.01s WALL (    1266 calls)

     Called by h_psi:
     h_psi:calbec :      1.17s CPU      0.16s WALL (    1770 calls)
     vloc_psi     :      5.50s CPU      0.67s WALL (    1770 calls)
     add_vuspsi   :      1.11s CPU      0.13s WALL (    1770 calls)

     General routines
     calbec       :      1.39s CPU      0.18s WALL (    2562 calls)
     fft          :      0.03s CPU      0.00s WALL (      92 calls)
     ffts         :      0.00s CPU      0.00s WALL (       6 calls)
     fftw         :      4.67s CPU      0.56s WALL (   17744 calls)

     Parallel routines

     PWSCF        :     25.02s CPU      3.49s WALL


   This run was terminated on:  15:21:30  22Feb2022            

=------------------------------------------------------------------------------=
   JOB DONE.
=------------------------------------------------------------------------------=
