
     Program PWSCF v.6.7MaX starts on 22Feb2022 at 14:59:43 

     This program is part of the open-source Quantum ESPRESSO suite
     for quantum simulation of materials; please cite
         "P. Giannozzi et al., J. Phys.:Condens. Matter 21 395502 (2009);
         "P. Giannozzi et al., J. Phys.:Condens. Matter 29 465901 (2017);
          URL http://www.quantum-espresso.org", 
     in publications or presentations arising from this work. More details at
     http://www.quantum-espresso.org/quote

     Parallel version (MPI), running on     1 processors

     MPI processes distributed on     1 nodes
     Waiting for input...
     Reading input from standard input
Warning: card &CELL ignored
Warning: card 	CELL_DYNAMICS = 'BFGS' ignored
Warning: card / ignored

     Current dimensions of program PWSCF are:
     Max number of different atomic species (ntypx) = 10
     Max number of k-points (npk) =  40000
     Max angular momentum in pseudopotentials (lmaxx) =  3
     file Al.pbe-n-kjpaw_psl.1.0.0.UPF: wavefunction(s)  3S 3P renormalized

     Subspace diagonalization in iterative solution of the eigenvalue problem:
     a serial algorithm will be used


     G-vector sticks info
     --------------------
     sticks:   dense  smooth     PW     G-vecs:    dense   smooth      PW
     Sum         199     199     61                 1917     1917     339



     bravais-lattice index     =            2
     lattice parameter (alat)  =       5.0000  a.u.
     unit-cell volume          =      31.2500 (a.u.)^3
     number of atoms/cell      =            1
     number of atomic types    =            1
     number of electrons       =         3.00
     number of Kohn-Sham states=            6
     kinetic-energy cutoff     =      60.0000  Ry
     charge density cutoff     =     240.0000  Ry
     scf convergence threshold =      1.0E-08
     mixing beta               =       0.7000
     number of iterations used =            8  plain     mixing
     Exchange-correlation= SLA  PW   PBX  PBC
                           (   1   4   3   4   0   0   0)

     celldm(1)=   5.000000  celldm(2)=   0.000000  celldm(3)=   0.000000
     celldm(4)=   0.000000  celldm(5)=   0.000000  celldm(6)=   0.000000

     crystal axes: (cart. coord. in units of alat)
               a(1) = (  -0.500000   0.000000   0.500000 )  
               a(2) = (   0.000000   0.500000   0.500000 )  
               a(3) = (  -0.500000   0.500000   0.000000 )  

     reciprocal axes: (cart. coord. in units 2 pi/alat)
               b(1) = ( -1.000000 -1.000000  1.000000 )  
               b(2) = (  1.000000  1.000000  1.000000 )  
               b(3) = ( -1.000000  1.000000 -1.000000 )  


     PseudoPot. # 1 for Al read from file:
     ./Al.pbe-n-kjpaw_psl.1.0.0.UPF
     MD5 check sum: 502b6b27b9c6270cab5dd1084b96fa6d
     Pseudo is Projector augmented-wave + core cor, Zval =  3.0
     Generated using &quot;atomic&quot; code by A. Dal Corso  v.6.3
     Shape of augmentation charge: PSQ
     Using radial grid of 1135 points,  6 beta functions with: 
                l(1) =   0
                l(2) =   0
                l(3) =   1
                l(4) =   1
                l(5) =   2
                l(6) =   2
     Q(r) pseudized with 0 coefficients 


     atomic species   valence    mass     pseudopotential
        Al             3.00    26.98100     Al( 1.00)

     48 Sym. Ops., with inversion, found



   Cartesian axes

     site n.     atom                  positions (alat units)
         1           Al  tau(   1) = (   0.0000000   0.0000000   0.0000000  )

     number of k points=     4  Methfessel-Paxton smearing, width (Ry)=  0.0500
                       cart. coord. in units 2pi/alat
        k(    1) = (   0.0000000   0.0000000   0.0000000), wk =   0.0740741
        k(    2) = (  -0.3333333   0.3333333  -0.3333333), wk =   0.5925926
        k(    3) = (   0.0000000   0.6666667   0.0000000), wk =   0.4444444
        k(    4) = (   0.6666667  -0.0000000   0.6666667), wk =   0.8888889

     Dense  grid:     1917 G-vectors     FFT dimensions: (  18,  18,  18)

     Estimated max dynamical RAM per process >       8.50 MB

     Initial potential from superposition of free atoms

     starting charge    2.99771, renormalised to    3.00000
     Starting wfcs are    4 randomized atomic wfcs +    2 random wfcs
     Checking if some PAW data can be deallocated... 

     total cpu time spent up to now is        0.5 secs

     Self-consistent Calculation

     iteration #  1     ecut=    60.00 Ry     beta= 0.70
     Davidson diagonalization with overlap
     ethr =  1.00E-02,  avg # of iterations =  6.5

     Threshold (ethr) on eigenvalues was too large:
     Diagonalizing with lowered threshold

     Davidson diagonalization with overlap
     ethr =  4.70E-04,  avg # of iterations =  1.2

     total cpu time spent up to now is        0.7 secs

     total energy              =     -38.19046290 Ry
     estimated scf accuracy    <       0.01419544 Ry

     iteration #  2     ecut=    60.00 Ry     beta= 0.70
     Davidson diagonalization with overlap
     ethr =  4.73E-04,  avg # of iterations =  2.8

     total cpu time spent up to now is        0.9 secs

     total energy              =     -38.19219543 Ry
     estimated scf accuracy    <       0.00173640 Ry

     iteration #  3     ecut=    60.00 Ry     beta= 0.70
     Davidson diagonalization with overlap
     ethr =  5.79E-05,  avg # of iterations =  2.0

     total cpu time spent up to now is        1.1 secs

     total energy              =     -38.19243107 Ry
     estimated scf accuracy    <       0.00000108 Ry

     iteration #  4     ecut=    60.00 Ry     beta= 0.70
     Davidson diagonalization with overlap
     ethr =  3.62E-08,  avg # of iterations =  3.5

     total cpu time spent up to now is        1.2 secs

     total energy              =     -38.19243440 Ry
     estimated scf accuracy    <       0.00000001 Ry

     iteration #  5     ecut=    60.00 Ry     beta= 0.70
     Davidson diagonalization with overlap
     ethr =  3.98E-10,  avg # of iterations =  3.2

     total cpu time spent up to now is        1.4 secs

     End of self-consistent calculation

          k = 0.0000 0.0000 0.0000 (   259 PWs)   bands (ev):

     8.1177  52.1074  52.1074  52.1074  60.7121  69.1767

          k =-0.3333 0.3333-0.3333 (   256 PWs)   bands (ev):

    14.6551  31.1093  50.2558  50.2558  58.5076  63.7048

          k = 0.0000 0.6667 0.0000 (   246 PWs)   bands (ev):

    16.5257  36.3742  36.4294  48.0263  48.0263  69.4605

          k = 0.6667-0.0000 0.6667 (   236 PWs)   bands (ev):

    22.8660  28.2609  31.4158  48.4817  55.5065  70.9435

     the Fermi energy is    30.8377 ev

!    total energy              =     -38.19243443 Ry

     total all-electron energy =      -484.335215 Ry
     estimated scf accuracy    <          8.9E-09 Ry
     smearing contrib. (-TS)   =      -0.00107345 Ry
     internal energy E=F+TS    =     -38.19136098 Ry

     The total energy is F=E-TS. E is the sum of the following terms:
     one-electron contribution =       8.74153154 Ry
     hartree contribution      =       0.03765784 Ry
     xc contribution           =      -3.59717544 Ry
     ewald contribution        =      -8.25275173 Ry
     one-center paw contrib.   =     -35.12062319 Ry

     convergence has been achieved in   5 iterations

     Forces acting on atoms (cartesian axes, Ry/au):

     atom    1 type  1   force =     0.00000000    0.00000000    0.00000000

     Total force =     0.000000     Total SCF correction =     0.000000


     Computing stress (Cartesian axis) and pressure

          total   stress  (Ry/bohr**3)                   (kbar)     P=    13592.02
   0.09239669  -0.00000000   0.00000000        13592.02       -0.00        0.00
  -0.00000000   0.09239669   0.00000000           -0.00    13592.02        0.00
   0.00000000   0.00000000   0.09239669            0.00        0.00    13592.02


     Writing output data file ./Al.save/

     init_run     :      1.03s CPU      0.42s WALL (       1 calls)
     electrons    :      5.79s CPU      0.89s WALL (       1 calls)
     forces       :      0.08s CPU      0.01s WALL (       1 calls)
     stress       :      0.50s CPU      0.06s WALL (       1 calls)

     Called by init_run:
     wfcinit      :      0.06s CPU      0.01s WALL (       1 calls)
     potinit      :      0.10s CPU      0.10s WALL (       1 calls)
     hinit0       :      0.77s CPU      0.27s WALL (       1 calls)

     Called by electrons:
     c_bands      :      0.73s CPU      0.12s WALL (       6 calls)
     sum_band     :      0.39s CPU      0.06s WALL (       6 calls)
     v_of_rho     :      0.09s CPU      0.02s WALL (       6 calls)
     newd         :      0.03s CPU      0.01s WALL (       6 calls)
     PAW_pot      :      4.63s CPU      0.78s WALL (       6 calls)
     mix_rho      :      0.01s CPU      0.00s WALL (       6 calls)

     Called by c_bands:
     init_us_2    :      0.04s CPU      0.01s WALL (      60 calls)
     cegterg      :      0.68s CPU      0.11s WALL (      24 calls)

     Called by *egterg:
     cdiaghg      :      0.05s CPU      0.01s WALL (      97 calls)
     h_psi        :      0.62s CPU      0.10s WALL (     105 calls)
     s_psi        :      0.02s CPU      0.00s WALL (     105 calls)
     g_psi        :      0.00s CPU      0.00s WALL (      77 calls)

     Called by h_psi:
     h_psi:calbec :      0.01s CPU      0.00s WALL (     105 calls)
     vloc_psi     :      0.59s CPU      0.09s WALL (     105 calls)
     add_vuspsi   :      0.01s CPU      0.00s WALL (     105 calls)

     General routines
     calbec       :      0.02s CPU      0.00s WALL (     149 calls)
     fft          :      0.08s CPU      0.02s WALL (      92 calls)
     ffts         :      0.00s CPU      0.00s WALL (       6 calls)
     fftw         :      0.64s CPU      0.10s WALL (     998 calls)

     Parallel routines

     PWSCF        :      7.66s CPU      1.50s WALL


   This run was terminated on:  14:59:45  22Feb2022            

=------------------------------------------------------------------------------=
   JOB DONE.
=------------------------------------------------------------------------------=
