
     Program PWSCF v.6.7MaX starts on 22Feb2022 at 14:59:53 

     This program is part of the open-source Quantum ESPRESSO suite
     for quantum simulation of materials; please cite
         "P. Giannozzi et al., J. Phys.:Condens. Matter 21 395502 (2009);
         "P. Giannozzi et al., J. Phys.:Condens. Matter 29 465901 (2017);
          URL http://www.quantum-espresso.org", 
     in publications or presentations arising from this work. More details at
     http://www.quantum-espresso.org/quote

     Parallel version (MPI), running on     1 processors

     MPI processes distributed on     1 nodes
     Waiting for input...
     Reading input from standard input
Warning: card &CELL ignored
Warning: card 	CELL_DYNAMICS = 'BFGS' ignored
Warning: card / ignored

     Current dimensions of program PWSCF are:
     Max number of different atomic species (ntypx) = 10
     Max number of k-points (npk) =  40000
     Max angular momentum in pseudopotentials (lmaxx) =  3
     file Al.pbe-n-kjpaw_psl.1.0.0.UPF: wavefunction(s)  3S 3P renormalized

     Subspace diagonalization in iterative solution of the eigenvalue problem:
     a serial algorithm will be used


     G-vector sticks info
     --------------------
     sticks:   dense  smooth     PW     G-vecs:    dense   smooth      PW
     Sum         199     199     73                 1917     1917     411



     bravais-lattice index     =            2
     lattice parameter (alat)  =       5.0000  a.u.
     unit-cell volume          =      31.2500 (a.u.)^3
     number of atoms/cell      =            1
     number of atomic types    =            1
     number of electrons       =         3.00
     number of Kohn-Sham states=            6
     kinetic-energy cutoff     =      60.0000  Ry
     charge density cutoff     =     240.0000  Ry
     scf convergence threshold =      1.0E-08
     mixing beta               =       0.7000
     number of iterations used =            8  plain     mixing
     Exchange-correlation= SLA  PW   PBX  PBC
                           (   1   4   3   4   0   0   0)

     celldm(1)=   5.000000  celldm(2)=   0.000000  celldm(3)=   0.000000
     celldm(4)=   0.000000  celldm(5)=   0.000000  celldm(6)=   0.000000

     crystal axes: (cart. coord. in units of alat)
               a(1) = (  -0.500000   0.000000   0.500000 )  
               a(2) = (   0.000000   0.500000   0.500000 )  
               a(3) = (  -0.500000   0.500000   0.000000 )  

     reciprocal axes: (cart. coord. in units 2 pi/alat)
               b(1) = ( -1.000000 -1.000000  1.000000 )  
               b(2) = (  1.000000  1.000000  1.000000 )  
               b(3) = ( -1.000000  1.000000 -1.000000 )  


     PseudoPot. # 1 for Al read from file:
     ./Al.pbe-n-kjpaw_psl.1.0.0.UPF
     MD5 check sum: 502b6b27b9c6270cab5dd1084b96fa6d
     Pseudo is Projector augmented-wave + core cor, Zval =  3.0
     Generated using &quot;atomic&quot; code by A. Dal Corso  v.6.3
     Shape of augmentation charge: PSQ
     Using radial grid of 1135 points,  6 beta functions with: 
                l(1) =   0
                l(2) =   0
                l(3) =   1
                l(4) =   1
                l(5) =   2
                l(6) =   2
     Q(r) pseudized with 0 coefficients 


     atomic species   valence    mass     pseudopotential
        Al             3.00    26.98100     Al( 1.00)

     48 Sym. Ops., with inversion, found



   Cartesian axes

     site n.     atom                  positions (alat units)
         1           Al  tau(   1) = (   0.0000000   0.0000000   0.0000000  )

     number of k points=    29  Methfessel-Paxton smearing, width (Ry)=  0.0500
                       cart. coord. in units 2pi/alat
        k(    1) = (   0.0000000   0.0000000   0.0000000), wk =   0.0039062
        k(    2) = (  -0.1250000   0.1250000  -0.1250000), wk =   0.0312500
        k(    3) = (  -0.2500000   0.2500000  -0.2500000), wk =   0.0312500
        k(    4) = (  -0.3750000   0.3750000  -0.3750000), wk =   0.0312500
        k(    5) = (   0.5000000  -0.5000000   0.5000000), wk =   0.0156250
        k(    6) = (   0.0000000   0.2500000   0.0000000), wk =   0.0234375
        k(    7) = (  -0.1250000   0.3750000  -0.1250000), wk =   0.0937500
        k(    8) = (  -0.2500000   0.5000000  -0.2500000), wk =   0.0937500
        k(    9) = (   0.6250000  -0.3750000   0.6250000), wk =   0.0937500
        k(   10) = (   0.5000000  -0.2500000   0.5000000), wk =   0.0937500
        k(   11) = (   0.3750000  -0.1250000   0.3750000), wk =   0.0937500
        k(   12) = (   0.2500000   0.0000000   0.2500000), wk =   0.0468750
        k(   13) = (   0.0000000   0.5000000   0.0000000), wk =   0.0234375
        k(   14) = (  -0.1250000   0.6250000  -0.1250000), wk =   0.0937500
        k(   15) = (   0.7500000  -0.2500000   0.7500000), wk =   0.0937500
        k(   16) = (   0.6250000  -0.1250000   0.6250000), wk =   0.0937500
        k(   17) = (   0.5000000   0.0000000   0.5000000), wk =   0.0468750
        k(   18) = (   0.0000000   0.7500000   0.0000000), wk =   0.0234375
        k(   19) = (   0.8750000  -0.1250000   0.8750000), wk =   0.0937500
        k(   20) = (   0.7500000   0.0000000   0.7500000), wk =   0.0468750
        k(   21) = (   0.0000000  -1.0000000   0.0000000), wk =   0.0117188
        k(   22) = (  -0.2500000   0.5000000   0.0000000), wk =   0.0937500
        k(   23) = (   0.6250000  -0.3750000   0.8750000), wk =   0.1875000
        k(   24) = (   0.5000000  -0.2500000   0.7500000), wk =   0.0937500
        k(   25) = (   0.7500000  -0.2500000   1.0000000), wk =   0.0937500
        k(   26) = (   0.6250000  -0.1250000   0.8750000), wk =   0.1875000
        k(   27) = (   0.5000000   0.0000000   0.7500000), wk =   0.0937500
        k(   28) = (  -0.2500000  -1.0000000   0.0000000), wk =   0.0468750
        k(   29) = (  -0.5000000  -1.0000000   0.0000000), wk =   0.0234375

     Dense  grid:     1917 G-vectors     FFT dimensions: (  18,  18,  18)

     Estimated max dynamical RAM per process >       9.06 MB

     Initial potential from superposition of free atoms

     starting charge    2.99771, renormalised to    3.00000
     Starting wfcs are    4 randomized atomic wfcs +    2 random wfcs
     Checking if some PAW data can be deallocated... 

     total cpu time spent up to now is        0.5 secs

     Self-consistent Calculation

     iteration #  1     ecut=    60.00 Ry     beta= 0.70
     Davidson diagonalization with overlap
     ethr =  1.00E-02,  avg # of iterations =  6.4

     Threshold (ethr) on eigenvalues was too large:
     Diagonalizing with lowered threshold

     Davidson diagonalization with overlap
     ethr =  4.72E-04,  avg # of iterations =  1.2

     total cpu time spent up to now is        1.1 secs

     total energy              =     -38.26660183 Ry
     estimated scf accuracy    <       0.01416146 Ry

     iteration #  2     ecut=    60.00 Ry     beta= 0.70
     Davidson diagonalization with overlap
     ethr =  4.72E-04,  avg # of iterations =  1.9

     total cpu time spent up to now is        1.4 secs

     total energy              =     -38.26845070 Ry
     estimated scf accuracy    <       0.00167202 Ry

     iteration #  3     ecut=    60.00 Ry     beta= 0.70
     Davidson diagonalization with overlap
     ethr =  5.57E-05,  avg # of iterations =  3.1

     total cpu time spent up to now is        1.7 secs

     total energy              =     -38.26867884 Ry
     estimated scf accuracy    <       0.00000284 Ry

     iteration #  4     ecut=    60.00 Ry     beta= 0.70
     Davidson diagonalization with overlap
     ethr =  9.46E-08,  avg # of iterations =  3.7

     total cpu time spent up to now is        2.1 secs

     total energy              =     -38.26868203 Ry
     estimated scf accuracy    <       0.00000017 Ry

     iteration #  5     ecut=    60.00 Ry     beta= 0.70
     Davidson diagonalization with overlap
     ethr =  5.65E-09,  avg # of iterations =  2.0

     total cpu time spent up to now is        2.4 secs

     End of self-consistent calculation

          k = 0.0000 0.0000 0.0000 (   259 PWs)   bands (ev):

     8.0999  52.0602  52.0602  52.0602  60.6556  69.1935

          k =-0.1250 0.1250-0.1250 (   256 PWs)   bands (ev):

     9.0912  45.2237  52.1529  52.1529  63.2546  63.9841

          k =-0.2500 0.2500-0.2500 (   247 PWs)   bands (ev):

    11.9121  36.3717  51.3669  51.3669  60.0086  62.5784

          k =-0.3750 0.3750-0.3750 (   253 PWs)   bands (ev):

    16.1847  28.6346  49.7221  49.7221  58.1178  64.3707

          k = 0.5000-0.5000 0.5000 (   242 PWs)   bands (ev):

    20.5382  23.1829  48.9805  48.9805  57.6364  65.6477

          k = 0.0000 0.2500 0.0000 (   254 PWs)   bands (ev):

     9.4142  45.9062  50.6503  50.6503  56.1040  69.4903

          k =-0.1250 0.3750-0.1250 (   248 PWs)   bands (ev):

    11.6036  39.1796  48.1838  49.7136  54.5578  68.7240

          k =-0.2500 0.5000-0.2500 (   240 PWs)   bands (ev):

    15.3560  31.5018  44.7652  48.8914  57.6071  66.9047

          k = 0.6250-0.3750 0.6250 (   246 PWs)   bands (ev):

    20.0798  25.0166  42.9523  48.6431  60.1948  66.5141

          k = 0.5000-0.2500 0.5000 (   247 PWs)   bands (ev):

    18.4798  26.9884  42.5715  49.7017  62.1237  64.3051

          k = 0.3750-0.1250 0.3750 (   249 PWs)   bands (ev):

    13.9603  33.9373  43.6803  52.4895  59.4518  63.1065

          k = 0.2500 0.0000 0.2500 (   249 PWs)   bands (ev):

    10.6841  40.9080  47.0544  54.7730  57.6462  63.4201

          k = 0.0000 0.5000 0.0000 (   234 PWs)   bands (ev):

    13.0754  39.3735  43.4666  48.7242  48.7242  71.4526

          k =-0.1250 0.6250-0.1250 (   244 PWs)   bands (ev):

    16.1358  34.5464  38.4257  48.1629  50.7361  71.1735

          k = 0.7500-0.2500 0.7500 (   242 PWs)   bands (ev):

    20.3705  28.3990  35.9053  48.0472  53.9092  73.1668

          k = 0.6250-0.1250 0.6250 (   242 PWs)   bands (ev):

    21.7046  26.9410  34.7680  48.7531  57.4046  68.6417

          k = 0.5000 0.0000 0.5000 (   248 PWs)   bands (ev):

    17.4521  31.6634  36.4273  50.5636  61.1838  62.8022

          k = 0.0000 0.7500 0.0000 (   242 PWs)   bands (ev):

    18.4417  33.2512  35.3249  47.7579  47.7579  68.3998

          k = 0.8750-0.1250 0.8750 (   236 PWs)   bands (ev):

    22.0245  29.1190  32.8926  47.6497  49.1684  69.0605

          k = 0.7500 0.0000 0.7500 (   240 PWs)   bands (ev):

    24.6908  27.1036  30.6112  47.9449  52.4967  73.1867

          k = 0.0000-1.0000 0.0000 (   230 PWs)   bands (ev):

    24.4082  25.8270  33.9641  47.5254  47.5254  66.9414

          k =-0.2500 0.5000 0.0000 (   245 PWs)   bands (ev):

    14.2320  35.8016  40.9479  50.1980  54.4977  68.3353

          k = 0.6250-0.3750 0.8750 (   243 PWs)   bands (ev):

    18.2146  30.0800  37.7491  48.1508  58.7027  66.1229

          k = 0.5000-0.2500 0.7500 (   248 PWs)   bands (ev):

    22.0093  25.3785  37.1195  47.3242  61.6835  63.8457

          k = 0.7500-0.2500 1.0000 (   247 PWs)   bands (ev):

    19.4366  32.6263  33.1374  46.3958  53.1244  71.1856

          k = 0.6250-0.1250 0.8750 (   246 PWs)   bands (ev):

    23.4577  27.9531  31.6056  45.2502  57.3521  69.7178

          k = 0.5000 0.0000 0.7500 (   246 PWs)   bands (ev):

    22.0388  29.1748  31.8651  46.0897  61.6668  64.1288

          k =-0.2500-1.0000 0.0000 (   240 PWs)   bands (ev):

    25.1588  26.4395  31.5541  45.3272  52.6777  70.1575

          k =-0.5000-1.0000 0.0000 (   252 PWs)   bands (ev):

    26.0191  28.3611  28.3611  43.2831  63.7617  63.7617

     the Fermi energy is    29.3779 ev

!    total energy              =     -38.26868208 Ry

     total all-electron energy =      -484.411462 Ry
     estimated scf accuracy    <          5.1E-10 Ry
     smearing contrib. (-TS)   =       0.00028806 Ry
     internal energy E=F+TS    =     -38.26897014 Ry

     The total energy is F=E-TS. E is the sum of the following terms:
     one-electron contribution =       8.63053059 Ry
     hartree contribution      =       0.03887365 Ry
     xc contribution           =      -3.59155622 Ry
     ewald contribution        =      -8.25275173 Ry
     one-center paw contrib.   =     -35.09406643 Ry

     convergence has been achieved in   5 iterations

     Forces acting on atoms (cartesian axes, Ry/au):

     atom    1 type  1   force =     0.00000000    0.00000000    0.00000000

     Total force =     0.000000     Total SCF correction =     0.000000


     Computing stress (Cartesian axis) and pressure

          total   stress  (Ry/bohr**3)                   (kbar)     P=    13108.18
   0.08910760  -0.00000000   0.00000000        13108.18       -0.00        0.00
  -0.00000000   0.08910760   0.00000000           -0.00    13108.18        0.00
   0.00000000   0.00000000   0.08910760            0.00        0.00    13108.18


     Writing output data file ./Al.save/

     init_run     :      0.92s CPU      0.43s WALL (       1 calls)
     electrons    :     13.69s CPU      1.84s WALL (       1 calls)
     forces       :      0.14s CPU      0.02s WALL (       1 calls)
     stress       :      0.87s CPU      0.10s WALL (       1 calls)

     Called by init_run:
     wfcinit      :      0.27s CPU      0.05s WALL (       1 calls)
     potinit      :      0.10s CPU      0.11s WALL (       1 calls)
     hinit0       :      0.48s CPU      0.25s WALL (       1 calls)

     Called by electrons:
     c_bands      :      6.66s CPU      0.90s WALL (       6 calls)
     sum_band     :      1.58s CPU      0.22s WALL (       6 calls)
     v_of_rho     :      0.14s CPU      0.02s WALL (       6 calls)
     newd         :      0.02s CPU      0.02s WALL (       6 calls)
     PAW_pot      :      5.33s CPU      0.79s WALL (       6 calls)
     mix_rho      :      0.01s CPU      0.00s WALL (       6 calls)

     Called by c_bands:
     init_us_2    :      0.33s CPU      0.04s WALL (     435 calls)
     cegterg      :      6.21s CPU      0.85s WALL (     174 calls)

     Called by *egterg:
     cdiaghg      :      0.37s CPU      0.05s WALL (     677 calls)
     h_psi        :      5.48s CPU      0.76s WALL (     735 calls)
     s_psi        :      0.15s CPU      0.02s WALL (     735 calls)
     g_psi        :      0.03s CPU      0.00s WALL (     532 calls)

     Called by h_psi:
     h_psi:calbec :      0.10s CPU      0.01s WALL (     735 calls)
     vloc_psi     :      5.20s CPU      0.72s WALL (     735 calls)
     add_vuspsi   :      0.09s CPU      0.01s WALL (     735 calls)

     General routines
     calbec       :      0.13s CPU      0.02s WALL (    1054 calls)
     fft          :      0.09s CPU      0.02s WALL (      92 calls)
     ffts         :      0.01s CPU      0.00s WALL (       6 calls)
     fftw         :      5.76s CPU      0.79s WALL (    7184 calls)

     Parallel routines

     PWSCF        :     16.07s CPU      2.53s WALL


   This run was terminated on:  14:59:56  22Feb2022            

=------------------------------------------------------------------------------=
   JOB DONE.
=------------------------------------------------------------------------------=
