
     Program PWSCF v.6.7MaX starts on 22Feb2022 at 15:21:38 

     This program is part of the open-source Quantum ESPRESSO suite
     for quantum simulation of materials; please cite
         "P. Giannozzi et al., J. Phys.:Condens. Matter 21 395502 (2009);
         "P. Giannozzi et al., J. Phys.:Condens. Matter 29 465901 (2017);
          URL http://www.quantum-espresso.org", 
     in publications or presentations arising from this work. More details at
     http://www.quantum-espresso.org/quote

     Parallel version (MPI), running on     1 processors

     MPI processes distributed on     1 nodes
     Waiting for input...
     Reading input from standard input
Warning: card &CELL ignored
Warning: card 	CELL_DYNAMICS = 'BFGS' ignored
Warning: card / ignored

     Current dimensions of program PWSCF are:
     Max number of different atomic species (ntypx) = 10
     Max number of k-points (npk) =  40000
     Max angular momentum in pseudopotentials (lmaxx) =  3
     file Al.pbe-n-kjpaw_psl.1.0.0.UPF: wavefunction(s)  3S 3P renormalized

     Subspace diagonalization in iterative solution of the eigenvalue problem:
     a serial algorithm will be used


     G-vector sticks info
     --------------------
     sticks:   dense  smooth     PW     G-vecs:    dense   smooth      PW
     Sum         241     241     85                 2445     2445     531



     bravais-lattice index     =            2
     lattice parameter (alat)  =       5.0000  a.u.
     unit-cell volume          =      31.2500 (a.u.)^3
     number of atoms/cell      =            1
     number of atomic types    =            1
     number of electrons       =         3.00
     number of Kohn-Sham states=            6
     kinetic-energy cutoff     =      70.0000  Ry
     charge density cutoff     =     280.0000  Ry
     scf convergence threshold =      1.0E-08
     mixing beta               =       0.7000
     number of iterations used =            8  plain     mixing
     Exchange-correlation= SLA  PW   PBX  PBC
                           (   1   4   3   4   0   0   0)

     celldm(1)=   5.000000  celldm(2)=   0.000000  celldm(3)=   0.000000
     celldm(4)=   0.000000  celldm(5)=   0.000000  celldm(6)=   0.000000

     crystal axes: (cart. coord. in units of alat)
               a(1) = (  -0.500000   0.000000   0.500000 )  
               a(2) = (   0.000000   0.500000   0.500000 )  
               a(3) = (  -0.500000   0.500000   0.000000 )  

     reciprocal axes: (cart. coord. in units 2 pi/alat)
               b(1) = ( -1.000000 -1.000000  1.000000 )  
               b(2) = (  1.000000  1.000000  1.000000 )  
               b(3) = ( -1.000000  1.000000 -1.000000 )  


     PseudoPot. # 1 for Al read from file:
     ./Al.pbe-n-kjpaw_psl.1.0.0.UPF
     MD5 check sum: 502b6b27b9c6270cab5dd1084b96fa6d
     Pseudo is Projector augmented-wave + core cor, Zval =  3.0
     Generated using &quot;atomic&quot; code by A. Dal Corso  v.6.3
     Shape of augmentation charge: PSQ
     Using radial grid of 1135 points,  6 beta functions with: 
                l(1) =   0
                l(2) =   0
                l(3) =   1
                l(4) =   1
                l(5) =   2
                l(6) =   2
     Q(r) pseudized with 0 coefficients 


     atomic species   valence    mass     pseudopotential
        Al             3.00    26.98100     Al( 1.00)

     48 Sym. Ops., with inversion, found



   Cartesian axes

     site n.     atom                  positions (alat units)
         1           Al  tau(   1) = (   0.0000000   0.0000000   0.0000000  )

     number of k points=   120  Methfessel-Paxton smearing, width (Ry)=  0.0500

     Number of k-points >= 100: set verbosity='high' to print them.

     Dense  grid:     2445 G-vectors     FFT dimensions: (  20,  20,  20)

     Estimated max dynamical RAM per process >      13.92 MB

     Initial potential from superposition of free atoms

     starting charge    2.99771, renormalised to    3.00000
     Starting wfcs are    4 randomized atomic wfcs +    2 random wfcs
     Checking if some PAW data can be deallocated... 

     total cpu time spent up to now is        0.7 secs

     Self-consistent Calculation

     iteration #  1     ecut=    70.00 Ry     beta= 0.70
     Davidson diagonalization with overlap
     ethr =  1.00E-02,  avg # of iterations =  6.3

     Threshold (ethr) on eigenvalues was too large:
     Diagonalizing with lowered threshold

     Davidson diagonalization with overlap
     ethr =  4.70E-04,  avg # of iterations =  1.4

     total cpu time spent up to now is        1.9 secs

     total energy              =     -38.26658955 Ry
     estimated scf accuracy    <       0.01408687 Ry

     iteration #  2     ecut=    70.00 Ry     beta= 0.70
     Davidson diagonalization with overlap
     ethr =  4.70E-04,  avg # of iterations =  1.9

     total cpu time spent up to now is        2.5 secs

     total energy              =     -38.26845333 Ry
     estimated scf accuracy    <       0.00166644 Ry

     iteration #  3     ecut=    70.00 Ry     beta= 0.70
     Davidson diagonalization with overlap
     ethr =  5.55E-05,  avg # of iterations =  2.6

     total cpu time spent up to now is        3.0 secs

     total energy              =     -38.26868372 Ry
     estimated scf accuracy    <       0.00000278 Ry

     iteration #  4     ecut=    70.00 Ry     beta= 0.70
     Davidson diagonalization with overlap
     ethr =  9.25E-08,  avg # of iterations =  3.7

     total cpu time spent up to now is        3.7 secs

     total energy              =     -38.26868614 Ry
     estimated scf accuracy    <       0.00000019 Ry

     iteration #  5     ecut=    70.00 Ry     beta= 0.70
     Davidson diagonalization with overlap
     ethr =  6.20E-09,  avg # of iterations =  2.0

     total cpu time spent up to now is        4.2 secs

     End of self-consistent calculation

     Number of k-points >= 100: set verbosity='high' to print the bands.

     the Fermi energy is    29.4401 ev

!    total energy              =     -38.26868619 Ry

     total all-electron energy =      -484.411466 Ry
     estimated scf accuracy    <          7.0E-10 Ry
     smearing contrib. (-TS)   =      -0.00015379 Ry
     internal energy E=F+TS    =     -38.26853239 Ry

     The total energy is F=E-TS. E is the sum of the following terms:
     one-electron contribution =       8.63062018 Ry
     hartree contribution      =       0.03877954 Ry
     xc contribution           =      -3.59144462 Ry
     ewald contribution        =      -8.25275173 Ry
     one-center paw contrib.   =     -35.09373575 Ry

     convergence has been achieved in   5 iterations

     Forces acting on atoms (cartesian axes, Ry/au):

     atom    1 type  1   force =     0.00000000    0.00000000    0.00000000

     Total force =     0.000000     Total SCF correction =     0.000000


     Computing stress (Cartesian axis) and pressure

          total   stress  (Ry/bohr**3)                   (kbar)     P=    13113.44
   0.08914333   0.00000000   0.00000000        13113.44        0.00        0.00
   0.00000000   0.08914333   0.00000000            0.00    13113.44        0.00
   0.00000000  -0.00000000   0.08914333            0.00       -0.00    13113.44


     Writing output data file ./Al.save/

     init_run     :      2.19s CPU      0.57s WALL (       1 calls)
     electrons    :     31.43s CPU      3.53s WALL (       1 calls)
     forces       :      0.46s CPU      0.05s WALL (       1 calls)
     stress       :      1.71s CPU      0.28s WALL (       1 calls)

     Called by init_run:
     wfcinit      :      1.13s CPU      0.14s WALL (       1 calls)
     potinit      :      0.10s CPU      0.10s WALL (       1 calls)
     hinit0       :      0.80s CPU      0.29s WALL (       1 calls)

     Called by electrons:
     c_bands      :     22.31s CPU      2.42s WALL (       6 calls)
     sum_band     :      3.42s CPU      0.40s WALL (       6 calls)
     v_of_rho     :      0.16s CPU      0.02s WALL (       6 calls)
     newd         :      0.02s CPU      0.02s WALL (       6 calls)
     PAW_pot      :      5.57s CPU      0.78s WALL (       6 calls)
     mix_rho      :      0.01s CPU      0.00s WALL (       6 calls)

     Called by c_bands:
     init_us_2    :      1.93s CPU      0.22s WALL (    1800 calls)
     cegterg      :     19.69s CPU      2.14s WALL (     720 calls)

     Called by *egterg:
     cdiaghg      :      1.90s CPU      0.20s WALL (    2737 calls)
     h_psi        :     13.48s CPU      1.49s WALL (    2977 calls)
     s_psi        :      2.11s CPU      0.22s WALL (    2977 calls)
     g_psi        :      0.17s CPU      0.02s WALL (    2137 calls)

     Called by h_psi:
     h_psi:calbec :      1.06s CPU      0.12s WALL (    2977 calls)
     vloc_psi     :     10.06s CPU      1.11s WALL (    2977 calls)
     add_vuspsi   :      1.90s CPU      0.21s WALL (    2977 calls)

     General routines
     calbec       :      1.34s CPU      0.15s WALL (    4297 calls)
     fft          :      0.03s CPU      0.00s WALL (      92 calls)
     ffts         :      0.00s CPU      0.00s WALL (       6 calls)
     fftw         :      8.53s CPU      0.95s WALL (   29756 calls)

     Parallel routines

     PWSCF        :     36.83s CPU      4.67s WALL


   This run was terminated on:  15:21:43  22Feb2022            

=------------------------------------------------------------------------------=
   JOB DONE.
=------------------------------------------------------------------------------=
