
     Program PWSCF v.6.7MaX starts on 24Feb2022 at 18: 4: 5 

     This program is part of the open-source Quantum ESPRESSO suite
     for quantum simulation of materials; please cite
         "P. Giannozzi et al., J. Phys.:Condens. Matter 21 395502 (2009);
         "P. Giannozzi et al., J. Phys.:Condens. Matter 29 465901 (2017);
          URL http://www.quantum-espresso.org", 
     in publications or presentations arising from this work. More details at
     http://www.quantum-espresso.org/quote

     Parallel version (MPI), running on    36 processors

     MPI processes distributed on     1 nodes
     R & G space division:  proc/nbgrp/npool/nimage =      36
     Waiting for input...
     Reading input from standard input

     Current dimensions of program PWSCF are:
     Max number of different atomic species (ntypx) = 10
     Max number of k-points (npk) =  40000
     Max angular momentum in pseudopotentials (lmaxx) =  3

     Subspace diagonalization in iterative solution of the eigenvalue problem:
     a serial algorithm will be used

     Message from routine setup:
     using ibrav=0 with symmetry is DISCOURAGED, use correct ibrav instead

     Parallelization info
     --------------------
     sticks:   dense  smooth     PW     G-vecs:    dense   smooth      PW
     Min         225     225     60                15377    15377    2094
     Max         226     226     61                15382    15382    2097
     Sum        8129    8129   2161               553685   553685   75421



     bravais-lattice index     =            0
     lattice parameter (alat)  =      20.6660  a.u.
     unit-cell volume          =    8826.0878 (a.u.)^3
     number of atoms/cell      =           42
     number of atomic types    =            1
     number of electrons       =       168.00
     number of Kohn-Sham states=           84
     kinetic-energy cutoff     =      60.0000  Ry
     charge density cutoff     =     240.0000  Ry
     scf convergence threshold =      1.0E-06
     mixing beta               =       0.7000
     number of iterations used =            8  plain     mixing
     Exchange-correlation=  SLA  PW   PBE  PBE
                           (   1   4   3   4   0   0   0)

     celldm(1)=  20.665984  celldm(2)=   0.000000  celldm(3)=   0.000000
     celldm(4)=   0.000000  celldm(5)=   0.000000  celldm(6)=   0.000000

     crystal axes: (cart. coord. in units of alat)
               a(1) = (   1.000000   0.000000   0.000000 )  
               a(2) = (   0.000000   1.000000   0.000000 )  
               a(3) = (   0.000000   0.000000   1.000000 )  

     reciprocal axes: (cart. coord. in units 2 pi/alat)
               b(1) = (  1.000000  0.000000  0.000000 )  
               b(2) = (  0.000000  1.000000  0.000000 )  
               b(3) = (  0.000000  0.000000  1.000000 )  


     PseudoPot. # 1 for Si read from file:
     ./Si.pbe-rrkj.UPF
     MD5 check sum: cf7ab5690cd9a85b22c4813f7e365554
     Pseudo is Norm-conserving, Zval =  4.0
     Generated by new atomic code, or converted to UPF format
     Using radial grid of  883 points,  3 beta functions with: 
                l(1) =   0
                l(2) =   0
                l(3) =   1

     atomic species   valence    mass     pseudopotential
        Si             4.00    28.08600     Si( 1.00)

      4 Sym. Ops. (no inversion) found



   Cartesian axes

     site n.     atom                  positions (alat units)
         1           Si  tau(   1) = (   0.2500000   0.2500000   0.0000000  )
         2           Si  tau(   2) = (   0.7500000   0.2500000   0.0000000  )
         3           Si  tau(   3) = (   0.2500000   0.7500000   0.0000000  )
         4           Si  tau(   4) = (   0.7500000   0.7500000   0.0000000  )
         5           Si  tau(   5) = (   0.2500000   0.2500000   0.5000000  )
         6           Si  tau(   6) = (   0.7500000   0.2500000   0.5000000  )
         7           Si  tau(   7) = (   0.2500000   0.7500000   0.5000000  )
         8           Si  tau(   8) = (   0.7500000   0.7500000   0.5000000  )
         9           Si  tau(   9) = (   0.5000000   0.5000000   0.0000000  )
        10           Si  tau(  10) = (   0.5000000   0.5000000   0.5000000  )
        11           Si  tau(  11) = (   0.2500000   0.5000000   0.2500000  )
        12           Si  tau(  12) = (   0.7500000   0.5000000   0.2500000  )
        13           Si  tau(  13) = (   0.2500000   0.5000000   0.7500000  )
        14           Si  tau(  14) = (   0.7500000   0.5000000   0.7500000  )
        15           Si  tau(  15) = (   0.5000000   0.2500000   0.2500000  )
        16           Si  tau(  16) = (   0.5000000   0.7500000   0.2500000  )
        17           Si  tau(  17) = (   0.5000000   0.2500000   0.7500000  )
        18           Si  tau(  18) = (   0.5000000   0.7500000   0.7500000  )
        19           Si  tau(  19) = (   0.3750000   0.3750000   0.1250000  )
        20           Si  tau(  20) = (   0.8750000   0.3750000   0.1250000  )
        21           Si  tau(  21) = (   0.3750000   0.8750000   0.1250000  )
        22           Si  tau(  22) = (   0.8750000   0.8750000   0.1250000  )
        23           Si  tau(  23) = (   0.3750000   0.3750000   0.6250000  )
        24           Si  tau(  24) = (   0.8750000   0.3750000   0.6250000  )
        25           Si  tau(  25) = (   0.3750000   0.8750000   0.6250000  )
        26           Si  tau(  26) = (   0.8750000   0.8750000   0.6250000  )
        27           Si  tau(  27) = (   0.1250000   0.1250000   0.1250000  )
        28           Si  tau(  28) = (   0.6250000   0.1250000   0.1250000  )
        29           Si  tau(  29) = (   0.1250000   0.6250000   0.1250000  )
        30           Si  tau(  30) = (   0.6250000   0.6250000   0.1250000  )
        31           Si  tau(  31) = (   0.1250000   0.1250000   0.6250000  )
        32           Si  tau(  32) = (   0.6250000   0.1250000   0.6250000  )
        33           Si  tau(  33) = (   0.1250000   0.6250000   0.6250000  )
        34           Si  tau(  34) = (   0.6250000   0.6250000   0.6250000  )
        35           Si  tau(  35) = (   0.3750000   0.1250000   0.3750000  )
        36           Si  tau(  36) = (   0.8750000   0.1250000   0.3750000  )
        37           Si  tau(  37) = (   0.3750000   0.6250000   0.3750000  )
        38           Si  tau(  38) = (   0.8750000   0.6250000   0.3750000  )
        39           Si  tau(  39) = (   0.1250000   0.3750000   0.3750000  )
        40           Si  tau(  40) = (   0.6250000   0.3750000   0.3750000  )
        41           Si  tau(  41) = (   0.1250000   0.8750000   0.3750000  )
        42           Si  tau(  42) = (   0.6250000   0.8750000   0.3750000  )

     number of k points=    36
                       cart. coord. in units 2pi/alat
        k(    1) = (   0.0833333   0.0833333   0.0833333), wk =   0.0370370
        k(    2) = (   0.0833333   0.0833333   0.2500000), wk =   0.0370370
        k(    3) = (   0.0833333   0.0833333   0.4166667), wk =   0.0370370
        k(    4) = (   0.0833333   0.2500000   0.2500000), wk =   0.0740741
        k(    5) = (   0.0833333   0.2500000   0.4166667), wk =   0.0740741
        k(    6) = (   0.0833333   0.4166667   0.4166667), wk =   0.0740741
        k(    7) = (   0.2500000   0.2500000   0.2500000), wk =   0.0370370
        k(    8) = (   0.2500000   0.2500000   0.4166667), wk =   0.0370370
        k(    9) = (   0.2500000   0.4166667   0.4166667), wk =   0.0740741
        k(   10) = (   0.4166667   0.4166667   0.4166667), wk =   0.0370370
        k(   11) = (   0.0833333  -0.0833333   0.0833333), wk =   0.0370370
        k(   12) = (   0.0833333  -0.0833333   0.2500000), wk =   0.0370370
        k(   13) = (   0.2500000  -0.0833333   0.0833333), wk =   0.0740741
        k(   14) = (  -0.2500000  -0.0833333  -0.0833333), wk =   0.0740741
        k(   15) = (   0.0833333  -0.0833333   0.4166667), wk =   0.0370370
        k(   16) = (   0.4166667  -0.0833333   0.0833333), wk =   0.0740741
        k(   17) = (  -0.4166667  -0.0833333  -0.0833333), wk =   0.0740741
        k(   18) = (   0.2500000  -0.0833333   0.2500000), wk =   0.0740741
        k(   19) = (   0.2500000  -0.2500000   0.0833333), wk =   0.0370370
        k(   20) = (  -0.2500000  -0.2500000  -0.0833333), wk =   0.0370370
        k(   21) = (   0.2500000  -0.0833333   0.4166667), wk =   0.0740741
        k(   22) = (   0.4166667  -0.2500000   0.0833333), wk =   0.0740741
        k(   23) = (  -0.4166667  -0.2500000  -0.0833333), wk =   0.0740741
        k(   24) = (  -0.0833333   0.4166667   0.2500000), wk =   0.0740741
        k(   25) = (  -0.0833333  -0.4166667  -0.2500000), wk =   0.0740741
        k(   26) = (   0.4166667  -0.0833333   0.4166667), wk =   0.0740741
        k(   27) = (   0.4166667  -0.4166667   0.0833333), wk =   0.0370370
        k(   28) = (  -0.4166667  -0.4166667  -0.0833333), wk =   0.0370370
        k(   29) = (   0.2500000  -0.2500000   0.2500000), wk =   0.0370370
        k(   30) = (   0.2500000  -0.2500000   0.4166667), wk =   0.0370370
        k(   31) = (   0.4166667  -0.2500000   0.2500000), wk =   0.0740741
        k(   32) = (  -0.4166667  -0.2500000  -0.2500000), wk =   0.0740741
        k(   33) = (   0.4166667  -0.2500000   0.4166667), wk =   0.0740741
        k(   34) = (   0.4166667  -0.4166667   0.2500000), wk =   0.0370370
        k(   35) = (  -0.4166667  -0.4166667  -0.2500000), wk =   0.0370370
        k(   36) = (   0.4166667  -0.4166667   0.4166667), wk =   0.0370370

     Dense  grid:   553685 G-vectors     FFT dimensions: ( 108, 108, 108)

     Estimated max dynamical RAM per process >     117.85 MB

     Estimated total dynamical RAM >       4.14 GB

     Initial potential from superposition of free atoms

     starting charge  167.97676, renormalised to  168.00000
     Starting wfcs are  168 randomized atomic wfcs

     total cpu time spent up to now is       66.3 secs

     Self-consistent Calculation

     iteration #  1     ecut=    60.00 Ry     beta= 0.70
     Davidson diagonalization with overlap
     ethr =  1.00E-02,  avg # of iterations =  2.0

     Threshold (ethr) on eigenvalues was too large:
     Diagonalizing with lowered threshold

     Davidson diagonalization with overlap
     ethr =  8.59E-04,  avg # of iterations =  3.3

     total cpu time spent up to now is      467.6 secs

     total energy              =    -326.26886980 Ry
     estimated scf accuracy    <       1.79262244 Ry

     iteration #  2     ecut=    60.00 Ry     beta= 0.70
     Davidson diagonalization with overlap
     ethr =  1.07E-03,  avg # of iterations = 13.3

     total cpu time spent up to now is     1270.3 secs

     total energy              =    -323.52538883 Ry
     estimated scf accuracy    <      32.78654367 Ry

     iteration #  3     ecut=    60.00 Ry     beta= 0.70
     Davidson diagonalization with overlap
     ethr =  1.07E-03,  avg # of iterations = 10.7

     total cpu time spent up to now is     1918.0 secs

     total energy              =    -326.74734416 Ry
     estimated scf accuracy    <       1.33048465 Ry

     iteration #  4     ecut=    60.00 Ry     beta= 0.70
     Davidson diagonalization with overlap
     ethr =  7.92E-04,  avg # of iterations =  8.2

     total cpu time spent up to now is     2428.8 secs

     total energy              =    -326.85333776 Ry
     estimated scf accuracy    <       2.12236194 Ry

     iteration #  5     ecut=    60.00 Ry     beta= 0.70
     Davidson diagonalization with overlap
     ethr =  7.92E-04,  avg # of iterations =  4.9

     total cpu time spent up to now is     2759.9 secs

     total energy              =    -326.94418521 Ry
     estimated scf accuracy    <       0.34380633 Ry

     iteration #  6     ecut=    60.00 Ry     beta= 0.70
     Davidson diagonalization with overlap
     ethr =  2.05E-04,  avg # of iterations =  7.1

     total cpu time spent up to now is     3207.1 secs

     total energy              =    -327.03038296 Ry
     estimated scf accuracy    <       0.08967801 Ry

     iteration #  7     ecut=    60.00 Ry     beta= 0.70
     Davidson diagonalization with overlap
     c_bands:  1 eigenvalues not converged
     c_bands:  1 eigenvalues not converged
     c_bands:  1 eigenvalues not converged
     ethr =  5.34E-05,  avg # of iterations =  8.7

     total cpu time spent up to now is     3737.5 secs

     total energy              =    -327.02771821 Ry
     estimated scf accuracy    <       0.08647904 Ry

     iteration #  8     ecut=    60.00 Ry     beta= 0.70
     Davidson diagonalization with overlap
     ethr =  5.15E-05,  avg # of iterations =  3.3

     total cpu time spent up to now is     3978.3 secs

     total energy              =    -327.02900066 Ry
     estimated scf accuracy    <       0.02596634 Ry

     iteration #  9     ecut=    60.00 Ry     beta= 0.70
     Davidson diagonalization with overlap
     c_bands:  1 eigenvalues not converged
     c_bands:  1 eigenvalues not converged
     c_bands:  1 eigenvalues not converged
     c_bands:  1 eigenvalues not converged
     c_bands:  1 eigenvalues not converged
     c_bands:  1 eigenvalues not converged
     c_bands:  1 eigenvalues not converged
     c_bands:  1 eigenvalues not converged
     ethr =  1.55E-05,  avg # of iterations = 13.5

     total cpu time spent up to now is     4772.2 secs

     total energy              =    -327.03715216 Ry
     estimated scf accuracy    <       0.01140845 Ry

     iteration # 10     ecut=    60.00 Ry     beta= 0.70
     Davidson diagonalization with overlap
     c_bands:  1 eigenvalues not converged
     c_bands:  1 eigenvalues not converged
     c_bands:  1 eigenvalues not converged
     ethr =  6.79E-06,  avg # of iterations =  5.8

     total cpu time spent up to now is     5135.3 secs

     total energy              =    -327.03600492 Ry
     estimated scf accuracy    <       0.01238783 Ry

     iteration # 11     ecut=    60.00 Ry     beta= 0.70
     Davidson diagonalization with overlap
     ethr =  6.79E-06,  avg # of iterations =  6.6

     total cpu time spent up to now is     5540.3 secs

     total energy              =    -327.03626102 Ry
     estimated scf accuracy    <       0.00368176 Ry

     iteration # 12     ecut=    60.00 Ry     beta= 0.70
     Davidson diagonalization with overlap
     c_bands:  1 eigenvalues not converged
     c_bands:  1 eigenvalues not converged
     c_bands:  1 eigenvalues not converged
     ethr =  2.19E-06,  avg # of iterations = 11.4

     total cpu time spent up to now is     6220.7 secs

     total energy              =    -327.03718627 Ry
     estimated scf accuracy    <       0.00060524 Ry

     iteration # 13     ecut=    60.00 Ry     beta= 0.70
     Davidson diagonalization with overlap
     c_bands:  1 eigenvalues not converged
     c_bands:  1 eigenvalues not converged
     c_bands:  1 eigenvalues not converged
     c_bands:  2 eigenvalues not converged
     c_bands:  1 eigenvalues not converged
     c_bands:  1 eigenvalues not converged
     c_bands:  1 eigenvalues not converged
     c_bands:  1 eigenvalues not converged
     c_bands:  1 eigenvalues not converged
     ethr =  3.60E-07,  avg # of iterations = 15.8

     total cpu time spent up to now is     7137.0 secs

     total energy              =    -327.03732313 Ry
     estimated scf accuracy    <       0.00341756 Ry

     iteration # 14     ecut=    60.00 Ry     beta= 0.70
     Davidson diagonalization with overlap
     ethr =  3.60E-07,  avg # of iterations =  5.1

     total cpu time spent up to now is     7464.1 secs

     total energy              =    -327.03694409 Ry
     estimated scf accuracy    <       0.00240708 Ry

     iteration # 15     ecut=    60.00 Ry     beta= 0.70
     Davidson diagonalization with overlap
     c_bands:  1 eigenvalues not converged
     c_bands:  1 eigenvalues not converged
     c_bands:  1 eigenvalues not converged
     c_bands:  1 eigenvalues not converged
     c_bands:  1 eigenvalues not converged
     c_bands:  1 eigenvalues not converged
     c_bands:  1 eigenvalues not converged
     c_bands:  1 eigenvalues not converged
     ethr =  3.60E-07,  avg # of iterations = 14.9

     total cpu time spent up to now is     8321.9 secs

     total energy              =    -327.03723023 Ry
     estimated scf accuracy    <       0.00034680 Ry

     iteration # 16     ecut=    60.00 Ry     beta= 0.70
     Davidson diagonalization with overlap
     ethr =  2.06E-07,  avg # of iterations =  4.1

     total cpu time spent up to now is     8598.7 secs

     total energy              =    -327.03722160 Ry
     estimated scf accuracy    <       0.00016496 Ry

     iteration # 17     ecut=    60.00 Ry     beta= 0.70
     Davidson diagonalization with overlap
     c_bands:  1 eigenvalues not converged
     c_bands:  1 eigenvalues not converged
     c_bands:  1 eigenvalues not converged
     ethr =  9.82E-08,  avg # of iterations = 11.4

     total cpu time spent up to now is     9281.2 secs

     total energy              =    -327.03725662 Ry
     estimated scf accuracy    <       0.00002907 Ry

     iteration # 18     ecut=    60.00 Ry     beta= 0.70
     Davidson diagonalization with overlap
     c_bands:  1 eigenvalues not converged
     c_bands:  1 eigenvalues not converged
