
     Program PWSCF v.6.7MaX starts on 23Feb2022 at 21:45:21 

     This program is part of the open-source Quantum ESPRESSO suite
     for quantum simulation of materials; please cite
         "P. Giannozzi et al., J. Phys.:Condens. Matter 21 395502 (2009);
         "P. Giannozzi et al., J. Phys.:Condens. Matter 29 465901 (2017);
          URL http://www.quantum-espresso.org", 
     in publications or presentations arising from this work. More details at
     http://www.quantum-espresso.org/quote

     Parallel version (MPI), running on    36 processors

     MPI processes distributed on     1 nodes
     R & G space division:  proc/nbgrp/npool/nimage =      36
     Waiting for input...
     Reading input from standard input

     Current dimensions of program PWSCF are:
     Max number of different atomic species (ntypx) = 10
     Max number of k-points (npk) =  40000
     Max angular momentum in pseudopotentials (lmaxx) =  3

     Subspace diagonalization in iterative solution of the eigenvalue problem:
     a serial algorithm will be used

     Message from routine setup:
     using ibrav=0 with symmetry is DISCOURAGED, use correct ibrav instead

     Parallelization info
     --------------------
     sticks:   dense  smooth     PW     G-vecs:    dense   smooth      PW
     Min         112     112     30                 5436     5436     764
     Max         113     113     31                 5441     5441     771
     Sum        4061    4061   1101               195797   195797   27609



     bravais-lattice index     =            0
     lattice parameter (alat)  =      20.6660  a.u.
     unit-cell volume          =    8826.0878 (a.u.)^3
     number of atoms/cell      =           42
     number of atomic types    =            1
     number of electrons       =       168.00
     number of Kohn-Sham states=           84
     kinetic-energy cutoff     =      30.0000  Ry
     charge density cutoff     =     120.0000  Ry
     scf convergence threshold =      1.0E-06
     mixing beta               =       0.7000
     number of iterations used =            8  plain     mixing
     Exchange-correlation=  SLA  PW   PBE  PBE
                           (   1   4   3   4   0   0   0)

     celldm(1)=  20.665984  celldm(2)=   0.000000  celldm(3)=   0.000000
     celldm(4)=   0.000000  celldm(5)=   0.000000  celldm(6)=   0.000000

     crystal axes: (cart. coord. in units of alat)
               a(1) = (   1.000000   0.000000   0.000000 )  
               a(2) = (   0.000000   1.000000   0.000000 )  
               a(3) = (   0.000000   0.000000   1.000000 )  

     reciprocal axes: (cart. coord. in units 2 pi/alat)
               b(1) = (  1.000000  0.000000  0.000000 )  
               b(2) = (  0.000000  1.000000  0.000000 )  
               b(3) = (  0.000000  0.000000  1.000000 )  


     PseudoPot. # 1 for Si read from file:
     ./Si.pbe-rrkj.UPF
     MD5 check sum: cf7ab5690cd9a85b22c4813f7e365554
     Pseudo is Norm-conserving, Zval =  4.0
     Generated by new atomic code, or converted to UPF format
     Using radial grid of  883 points,  3 beta functions with: 
                l(1) =   0
                l(2) =   0
                l(3) =   1

     atomic species   valence    mass     pseudopotential
        Si             4.00    28.08600     Si( 1.00)

      4 Sym. Ops. (no inversion) found



   Cartesian axes

     site n.     atom                  positions (alat units)
         1           Si  tau(   1) = (   0.2500000   0.2500000   0.0000000  )
         2           Si  tau(   2) = (   0.7500000   0.2500000   0.0000000  )
         3           Si  tau(   3) = (   0.2500000   0.7500000   0.0000000  )
         4           Si  tau(   4) = (   0.7500000   0.7500000   0.0000000  )
         5           Si  tau(   5) = (   0.2500000   0.2500000   0.5000000  )
         6           Si  tau(   6) = (   0.7500000   0.2500000   0.5000000  )
         7           Si  tau(   7) = (   0.2500000   0.7500000   0.5000000  )
         8           Si  tau(   8) = (   0.7500000   0.7500000   0.5000000  )
         9           Si  tau(   9) = (   0.5000000   0.5000000   0.0000000  )
        10           Si  tau(  10) = (   0.5000000   0.5000000   0.5000000  )
        11           Si  tau(  11) = (   0.2500000   0.5000000   0.2500000  )
        12           Si  tau(  12) = (   0.7500000   0.5000000   0.2500000  )
        13           Si  tau(  13) = (   0.2500000   0.5000000   0.7500000  )
        14           Si  tau(  14) = (   0.7500000   0.5000000   0.7500000  )
        15           Si  tau(  15) = (   0.5000000   0.2500000   0.2500000  )
        16           Si  tau(  16) = (   0.5000000   0.7500000   0.2500000  )
        17           Si  tau(  17) = (   0.5000000   0.2500000   0.7500000  )
        18           Si  tau(  18) = (   0.5000000   0.7500000   0.7500000  )
        19           Si  tau(  19) = (   0.3750000   0.3750000   0.1250000  )
        20           Si  tau(  20) = (   0.8750000   0.3750000   0.1250000  )
        21           Si  tau(  21) = (   0.3750000   0.8750000   0.1250000  )
        22           Si  tau(  22) = (   0.8750000   0.8750000   0.1250000  )
        23           Si  tau(  23) = (   0.3750000   0.3750000   0.6250000  )
        24           Si  tau(  24) = (   0.8750000   0.3750000   0.6250000  )
        25           Si  tau(  25) = (   0.3750000   0.8750000   0.6250000  )
        26           Si  tau(  26) = (   0.8750000   0.8750000   0.6250000  )
        27           Si  tau(  27) = (   0.1250000   0.1250000   0.1250000  )
        28           Si  tau(  28) = (   0.6250000   0.1250000   0.1250000  )
        29           Si  tau(  29) = (   0.1250000   0.6250000   0.1250000  )
        30           Si  tau(  30) = (   0.6250000   0.6250000   0.1250000  )
        31           Si  tau(  31) = (   0.1250000   0.1250000   0.6250000  )
        32           Si  tau(  32) = (   0.6250000   0.1250000   0.6250000  )
        33           Si  tau(  33) = (   0.1250000   0.6250000   0.6250000  )
        34           Si  tau(  34) = (   0.6250000   0.6250000   0.6250000  )
        35           Si  tau(  35) = (   0.3750000   0.1250000   0.3750000  )
        36           Si  tau(  36) = (   0.8750000   0.1250000   0.3750000  )
        37           Si  tau(  37) = (   0.3750000   0.6250000   0.3750000  )
        38           Si  tau(  38) = (   0.8750000   0.6250000   0.3750000  )
        39           Si  tau(  39) = (   0.1250000   0.3750000   0.3750000  )
        40           Si  tau(  40) = (   0.6250000   0.3750000   0.3750000  )
        41           Si  tau(  41) = (   0.1250000   0.8750000   0.3750000  )
        42           Si  tau(  42) = (   0.6250000   0.8750000   0.3750000  )

     number of k points=    36
                       cart. coord. in units 2pi/alat
        k(    1) = (   0.0833333   0.0833333   0.0833333), wk =   0.0370370
        k(    2) = (   0.0833333   0.0833333   0.2500000), wk =   0.0370370
        k(    3) = (   0.0833333   0.0833333   0.4166667), wk =   0.0370370
        k(    4) = (   0.0833333   0.2500000   0.2500000), wk =   0.0740741
        k(    5) = (   0.0833333   0.2500000   0.4166667), wk =   0.0740741
        k(    6) = (   0.0833333   0.4166667   0.4166667), wk =   0.0740741
        k(    7) = (   0.2500000   0.2500000   0.2500000), wk =   0.0370370
        k(    8) = (   0.2500000   0.2500000   0.4166667), wk =   0.0370370
        k(    9) = (   0.2500000   0.4166667   0.4166667), wk =   0.0740741
        k(   10) = (   0.4166667   0.4166667   0.4166667), wk =   0.0370370
        k(   11) = (   0.0833333  -0.0833333   0.0833333), wk =   0.0370370
        k(   12) = (   0.0833333  -0.0833333   0.2500000), wk =   0.0370370
        k(   13) = (   0.2500000  -0.0833333   0.0833333), wk =   0.0740741
        k(   14) = (  -0.2500000  -0.0833333  -0.0833333), wk =   0.0740741
        k(   15) = (   0.0833333  -0.0833333   0.4166667), wk =   0.0370370
        k(   16) = (   0.4166667  -0.0833333   0.0833333), wk =   0.0740741
        k(   17) = (  -0.4166667  -0.0833333  -0.0833333), wk =   0.0740741
        k(   18) = (   0.2500000  -0.0833333   0.2500000), wk =   0.0740741
        k(   19) = (   0.2500000  -0.2500000   0.0833333), wk =   0.0370370
        k(   20) = (  -0.2500000  -0.2500000  -0.0833333), wk =   0.0370370
        k(   21) = (   0.2500000  -0.0833333   0.4166667), wk =   0.0740741
        k(   22) = (   0.4166667  -0.2500000   0.0833333), wk =   0.0740741
        k(   23) = (  -0.4166667  -0.2500000  -0.0833333), wk =   0.0740741
        k(   24) = (  -0.0833333   0.4166667   0.2500000), wk =   0.0740741
        k(   25) = (  -0.0833333  -0.4166667  -0.2500000), wk =   0.0740741
        k(   26) = (   0.4166667  -0.0833333   0.4166667), wk =   0.0740741
        k(   27) = (   0.4166667  -0.4166667   0.0833333), wk =   0.0370370
        k(   28) = (  -0.4166667  -0.4166667  -0.0833333), wk =   0.0370370
        k(   29) = (   0.2500000  -0.2500000   0.2500000), wk =   0.0370370
        k(   30) = (   0.2500000  -0.2500000   0.4166667), wk =   0.0370370
        k(   31) = (   0.4166667  -0.2500000   0.2500000), wk =   0.0740741
        k(   32) = (  -0.4166667  -0.2500000  -0.2500000), wk =   0.0740741
        k(   33) = (   0.4166667  -0.2500000   0.4166667), wk =   0.0740741
        k(   34) = (   0.4166667  -0.4166667   0.2500000), wk =   0.0370370
        k(   35) = (  -0.4166667  -0.4166667  -0.2500000), wk =   0.0370370
        k(   36) = (   0.4166667  -0.4166667   0.4166667), wk =   0.0370370

     Dense  grid:   195797 G-vectors     FFT dimensions: (  75,  75,  75)

     Estimated max dynamical RAM per process >      43.05 MB

     Estimated total dynamical RAM >       1.51 GB

     Initial potential from superposition of free atoms

     starting charge  167.97676, renormalised to  168.00000
     Starting wfcs are  168 randomized atomic wfcs

     total cpu time spent up to now is       58.9 secs

     Self-consistent Calculation

     iteration #  1     ecut=    30.00 Ry     beta= 0.70
     Davidson diagonalization with overlap
     ethr =  1.00E-02,  avg # of iterations =  2.0

     Threshold (ethr) on eigenvalues was too large:
     Diagonalizing with lowered threshold

     Davidson diagonalization with overlap
     ethr =  8.63E-04,  avg # of iterations =  3.0

     total cpu time spent up to now is      432.7 secs

     total energy              =    -326.26624739 Ry
     estimated scf accuracy    <       1.79539335 Ry

     iteration #  2     ecut=    30.00 Ry     beta= 0.70
     Davidson diagonalization with overlap
     ethr =  1.07E-03,  avg # of iterations = 13.7

     total cpu time spent up to now is     1234.4 secs

     total energy              =    -323.50564834 Ry
     estimated scf accuracy    <      32.96922264 Ry

     iteration #  3     ecut=    30.00 Ry     beta= 0.70
     Davidson diagonalization with overlap
     ethr =  1.07E-03,  avg # of iterations = 11.1

     total cpu time spent up to now is     1890.5 secs

     total energy              =    -326.74480991 Ry
     estimated scf accuracy    <       1.33180262 Ry

     iteration #  4     ecut=    30.00 Ry     beta= 0.70
     Davidson diagonalization with overlap
     ethr =  7.93E-04,  avg # of iterations =  8.3

     total cpu time spent up to now is     2383.6 secs

     total energy              =    -326.85439170 Ry
     estimated scf accuracy    <       2.09918339 Ry

     iteration #  5     ecut=    30.00 Ry     beta= 0.70
     Davidson diagonalization with overlap
     ethr =  7.93E-04,  avg # of iterations =  5.0

     total cpu time spent up to now is     2703.5 secs

     total energy              =    -326.94319766 Ry
     estimated scf accuracy    <       0.34261879 Ry

     iteration #  6     ecut=    30.00 Ry     beta= 0.70
     Davidson diagonalization with overlap
     ethr =  2.04E-04,  avg # of iterations =  7.1

     total cpu time spent up to now is     3132.4 secs

     total energy              =    -327.02845580 Ry
     estimated scf accuracy    <       0.09422011 Ry

     iteration #  7     ecut=    30.00 Ry     beta= 0.70
     Davidson diagonalization with overlap
     c_bands:  1 eigenvalues not converged
     c_bands:  1 eigenvalues not converged
     ethr =  5.61E-05,  avg # of iterations =  7.2

     total cpu time spent up to now is     3567.5 secs

     total energy              =    -327.02497968 Ry
     estimated scf accuracy    <       0.08047986 Ry

     iteration #  8     ecut=    30.00 Ry     beta= 0.70
     Davidson diagonalization with overlap
     c_bands:  1 eigenvalues not converged
     ethr =  4.79E-05,  avg # of iterations =  5.4

     total cpu time spent up to now is     3900.3 secs

     total energy              =    -327.02880121 Ry
     estimated scf accuracy    <       0.01808750 Ry

     iteration #  9     ecut=    30.00 Ry     beta= 0.70
     Davidson diagonalization with overlap
     c_bands:  1 eigenvalues not converged
     c_bands:  1 eigenvalues not converged
     c_bands:  1 eigenvalues not converged
     c_bands:  1 eigenvalues not converged
     c_bands:  1 eigenvalues not converged
     ethr =  1.08E-05,  avg # of iterations = 14.1

     total cpu time spent up to now is     4712.9 secs

     total energy              =    -327.03572552 Ry
     estimated scf accuracy    <       0.01114115 Ry

     iteration # 10     ecut=    30.00 Ry     beta= 0.70
     Davidson diagonalization with overlap
     c_bands:  1 eigenvalues not converged
     ethr =  6.63E-06,  avg # of iterations =  4.3

     total cpu time spent up to now is     4991.1 secs

     total energy              =    -327.03430988 Ry
     estimated scf accuracy    <       0.01214208 Ry

     iteration # 11     ecut=    30.00 Ry     beta= 0.70
     Davidson diagonalization with overlap
     ethr =  6.63E-06,  avg # of iterations =  7.7

     total cpu time spent up to now is     5445.5 secs

     total energy              =    -327.03452847 Ry
     estimated scf accuracy    <       0.00318355 Ry

     iteration # 12     ecut=    30.00 Ry     beta= 0.70
     Davidson diagonalization with overlap
     c_bands:  1 eigenvalues not converged
     c_bands:  1 eigenvalues not converged
     c_bands:  1 eigenvalues not converged
     ethr =  1.89E-06,  avg # of iterations = 13.1

     total cpu time spent up to now is     6183.3 secs

     total energy              =    -327.03555726 Ry
     estimated scf accuracy    <       0.00237119 Ry

     iteration # 13     ecut=    30.00 Ry     beta= 0.70
     Davidson diagonalization with overlap
     ethr =  1.41E-06,  avg # of iterations =  2.2

     total cpu time spent up to now is     6352.4 secs

     total energy              =    -327.03545643 Ry
     estimated scf accuracy    <       0.00186290 Ry

     iteration # 14     ecut=    30.00 Ry     beta= 0.70
     Davidson diagonalization with overlap
     ethr =  1.11E-06,  avg # of iterations =  2.5

     total cpu time spent up to now is     6537.4 secs

     total energy              =    -327.03533535 Ry
     estimated scf accuracy    <       0.00103921 Ry

     iteration # 15     ecut=    30.00 Ry     beta= 0.70
     Davidson diagonalization with overlap
     c_bands:  1 eigenvalues not converged
     c_bands:  1 eigenvalues not converged
     ethr =  6.19E-07,  avg # of iterations = 10.0

     total cpu time spent up to now is     7127.6 secs

     total energy              =    -327.03561029 Ry
     estimated scf accuracy    <       0.00033763 Ry

     iteration # 16     ecut=    30.00 Ry     beta= 0.70
     Davidson diagonalization with overlap
     c_bands:  1 eigenvalues not converged
     c_bands:  2 eigenvalues not converged
     ethr =  2.01E-07,  avg # of iterations =  3.4

     total cpu time spent up to now is     7360.1 secs

     total energy              =    -327.03562659 Ry
     estimated scf accuracy    <       0.00037135 Ry

     iteration # 17     ecut=    30.00 Ry     beta= 0.70
     Davidson diagonalization with overlap
     ethr =  2.01E-07,  avg # of iterations =  2.4

     total cpu time spent up to now is     7539.9 secs

     total energy              =    -327.03562235 Ry
     estimated scf accuracy    <       0.00032117 Ry

     iteration # 18     ecut=    30.00 Ry     beta= 0.70
     Davidson diagonalization with overlap
     ethr =  1.91E-07,  avg # of iterations =  1.2

     total cpu time spent up to now is     7660.4 secs

     total energy              =    -327.03559612 Ry
     estimated scf accuracy    <       0.00026106 Ry

     iteration # 19     ecut=    30.00 Ry     beta= 0.70
     Davidson diagonalization with overlap
     c_bands:  1 eigenvalues not converged
     c_bands:  1 eigenvalues not converged
     ethr =  1.55E-07,  avg # of iterations =  7.5

     total cpu time spent up to now is     8102.5 secs

     total energy              =    -327.03560067 Ry
     estimated scf accuracy    <       0.00006534 Ry

     iteration # 20     ecut=    30.00 Ry     beta= 0.70
     Davidson diagonalization with overlap
     c_bands:  1 eigenvalues not converged
     c_bands:  1 eigenvalues not converged
     c_bands:  1 eigenvalues not converged
     c_bands:  1 eigenvalues not converged
     ethr =  3.89E-08,  avg # of iterations = 13.8

     total cpu time spent up to now is     8895.1 secs

     total energy              =    -327.03562773 Ry
     estimated scf accuracy    <       0.00005252 Ry

     iteration # 21     ecut=    30.00 Ry     beta= 0.70
     Davidson diagonalization with overlap
     c_bands:  1 eigenvalues not converged
     ethr =  3.13E-08,  avg # of iterations =  1.9

     total cpu time spent up to now is     9049.0 secs

     total energy              =    -327.03561586 Ry
     estimated scf accuracy    <       0.00005240 Ry

     iteration # 22     ecut=    30.00 Ry     beta= 0.70
     Davidson diagonalization with overlap
     c_bands:  1 eigenvalues not converged
     c_bands:  1 eigenvalues not converged
     c_bands:  1 eigenvalues not converged
     c_bands:  1 eigenvalues not converged
     ethr =  3.12E-08,  avg # of iterations = 10.8

     total cpu time spent up to now is     9663.4 secs

     total energy              =    -327.03562415 Ry
     estimated scf accuracy    <       0.00000498 Ry

     iteration # 23     ecut=    30.00 Ry     beta= 0.70
     Davidson diagonalization with overlap
     c_bands:  1 eigenvalues not converged
     c_bands:  1 eigenvalues not converged
     c_bands:  2 eigenvalues not converged
     c_bands:  1 eigenvalues not converged
     c_bands:  1 eigenvalues not converged
     c_bands:  1 eigenvalues not converged
     c_bands:  1 eigenvalues not converged
     ethr =  2.96E-09,  avg # of iterations = 14.2

     total cpu time spent up to now is    10483.4 secs

     total energy              =    -327.03562572 Ry
     estimated scf accuracy    <       0.00000171 Ry

     iteration # 24     ecut=    30.00 Ry     beta= 0.70
     Davidson diagonalization with overlap
     c_bands:  1 eigenvalues not converged
     c_bands:  1 eigenvalues not converged
     c_bands:  1 eigenvalues not converged
     c_bands:  1 eigenvalues not converged
     c_bands:  1 eigenvalues not converged
     c_bands:  1 eigenvalues not converged
     c_bands:  1 eigenvalues not converged
     c_bands:  1 eigenvalues not converged
     ethr =  1.02E-09,  avg # of iterations =  9.9

     total cpu time spent up to now is    11065.6 secs

     total energy              =    -327.03562613 Ry
     estimated scf accuracy    <       0.00000454 Ry

     iteration # 25     ecut=    30.00 Ry     beta= 0.70
     Davidson diagonalization with overlap
     c_bands:  1 eigenvalues not converged
     c_bands:  1 eigenvalues not converged
     c_bands:  1 eigenvalues not converged
     ethr =  1.02E-09,  avg # of iterations =  4.0

     total cpu time spent up to now is    11332.8 secs

     total energy              =    -327.03562590 Ry
     estimated scf accuracy    <       0.00000412 Ry

     iteration # 26     ecut=    30.00 Ry     beta= 0.70
     Davidson diagonalization with overlap
     c_bands:  1 eigenvalues not converged
     c_bands:  1 eigenvalues not converged
     c_bands:  1 eigenvalues not converged
     ethr =  1.02E-09,  avg # of iterations =  5.5

     total cpu time spent up to now is    11684.4 secs

     total energy              =    -327.03562587 Ry
     estimated scf accuracy    <       0.00000227 Ry

     iteration # 27     ecut=    30.00 Ry     beta= 0.70
     Davidson diagonalization with overlap
     c_bands:  1 eigenvalues not converged
     c_bands:  1 eigenvalues not converged
     ethr =  1.02E-09,  avg # of iterations =  3.8

     total cpu time spent up to now is    11937.0 secs

     total energy              =    -327.03562588 Ry
     estimated scf accuracy    <       0.00000100 Ry

     iteration # 28     ecut=    30.00 Ry     beta= 0.70
     Davidson diagonalization with overlap
     c_bands:  1 eigenvalues not converged
     c_bands:  1 eigenvalues not converged
     c_bands:  1 eigenvalues not converged
     c_bands:  1 eigenvalues not converged
     c_bands:  1 eigenvalues not converged
     c_bands:  1 eigenvalues not converged
     c_bands:  1 eigenvalues not converged
     c_bands:  1 eigenvalues not converged
     ethr =  5.98E-10,  avg # of iterations = 12.3

     total cpu time spent up to now is    12632.6 secs

     End of self-consistent calculation

          k = 0.0833 0.0833 0.0833 ( 24453 PWs)   bands (ev):

    -8.6099  -7.7498  -7.7403  -7.7352  -7.1254  -7.0664  -6.9098  -6.7428
    -6.6829  -6.6107  -6.2979  -6.2820  -6.0248  -5.8336  -5.7950  -5.5689
    -5.4851  -5.2353  -4.7906  -4.6594  -4.5952  -4.5503  -4.4908  -4.4528
    -4.2865  -3.7833  -3.6870  -3.5440  -3.4442  -3.2999  -3.1990  -3.0891
    -3.0471  -2.9327  -2.7877  -2.2870  -2.1585  -2.0486  -1.5119  -1.4152
    -1.1915  -0.9009  -0.8331  -0.7737  -0.7507  -0.7327  -0.6013  -0.5678
    -0.4917  -0.4060  -0.2039  -0.0453   0.0129   0.0877   0.0929   0.2640
     0.3095   0.4135   0.5772   0.7007   0.7406   0.8269   0.8997   0.9249
     0.9613   0.9698   1.0954   1.1562   1.2366   1.2835   1.3999   1.5136
     1.5207   1.5795   1.6168   1.7396   1.8018   1.8374   1.9342   2.0642
     2.1132   2.1672   2.2500   2.2781

          k = 0.0833 0.0833 0.2500 ( 24489 PWs)   bands (ev):

    -8.6008  -7.7808  -7.7447  -7.7250  -7.1553  -7.0607  -6.9320  -6.7395
    -6.6804  -6.5473  -6.2811  -6.2555  -5.9951  -5.8427  -5.7946  -5.5792
    -5.4855  -5.3009  -4.7961  -4.6525  -4.5846  -4.5450  -4.4874  -4.4529
    -4.3314  -3.8186  -3.6572  -3.5449  -3.4603  -3.3498  -3.2158  -3.0770
    -3.0379  -2.8816  -2.6646  -2.3188  -2.1582  -2.0315  -1.5201  -1.4749
    -1.2243  -0.8991  -0.8411  -0.7569  -0.7568  -0.7112  -0.6144  -0.5466
    -0.5235  -0.3607  -0.2083  -0.0150  -0.0035   0.0509   0.0768   0.2333
     0.3101   0.3733   0.5227   0.6770   0.6835   0.7287   0.8724   0.9291
     0.9292   0.9933   1.1913   1.2764   1.2849   1.4065   1.4082   1.5454
     1.5476   1.6616   1.6854   1.8191   1.8332   1.8892   1.9789   2.0381
     2.1497   2.1677   2.1771   2.3577

          k = 0.0833 0.0833 0.4167 ( 24483 PWs)   bands (ev):

    -8.5912  -7.8188  -7.7394  -7.7139  -7.1850  -7.0555  -6.9533  -6.7362
    -6.6779  -6.4925  -6.2514  -6.2256  -5.9660  -5.8518  -5.7946  -5.5930
    -5.4859  -5.3762  -4.8016  -4.6459  -4.5733  -4.5417  -4.4805  -4.4576
    -4.3605  -3.8531  -3.6355  -3.5467  -3.4825  -3.3853  -3.2304  -3.0672
    -3.0194  -2.8380  -2.5373  -2.3516  -2.1574  -2.0162  -1.6348  -1.4304
    -1.2490  -0.9160  -0.8473  -0.7620  -0.7319  -0.6783  -0.6401  -0.5565
    -0.5277  -0.3348  -0.2122  -0.0313  -0.0129   0.0670   0.0892   0.1911
     0.3093   0.3266   0.4596   0.6179   0.6380   0.7007   0.8568   0.9365
     0.9408   1.0291   1.2462   1.2885   1.4102   1.4542   1.5038   1.5510
     1.6019   1.6634   1.7022   1.8561   1.9444   1.9572   2.0159   2.0805
     2.1548   2.1752   2.2724   2.2747

          k = 0.0833 0.2500 0.2500 ( 24470 PWs)   bands (ev):

    -8.5904  -7.7828  -7.7718  -7.7235  -7.1726  -7.0958  -6.9443  -6.6953
    -6.6205  -6.5476  -6.2811  -6.2500  -6.0001  -5.8125  -5.7958  -5.5376
    -5.4816  -5.2673  -4.8580  -4.7345  -4.6465  -4.5728  -4.5290  -4.4782
    -4.3045  -3.8220  -3.6054  -3.5833  -3.4201  -3.2786  -3.1119  -3.0862
    -2.9849  -2.8637  -2.6276  -2.3559  -2.2483  -2.0901  -1.5816  -1.4667
    -1.2893  -0.9104  -0.8498  -0.8061  -0.7608  -0.6568  -0.6382  -0.5520
    -0.4575  -0.2951  -0.2359  -0.0119  -0.0072   0.0530   0.1435   0.1917
     0.2868   0.4144   0.5421   0.6547   0.7291   0.7838   0.8415   0.9388
     0.9726   1.0377   1.1990   1.2472   1.2949   1.3692   1.4371   1.5537
     1.5957   1.6596   1.7275   1.8400   1.8650   1.9201   1.9762   2.0275
     2.1390   2.1781   2.2549   2.2841

          k = 0.0833 0.2500 0.4167 ( 24470 PWs)   bands (ev):

    -8.5808  -7.8100  -7.7758  -7.7143  -7.2011  -7.0922  -6.9660  -6.6918
    -6.6185  -6.4940  -6.2484  -6.2207  -5.9704  -5.8197  -5.7939  -5.5469
    -5.4898  -5.3495  -4.8590  -4.7324  -4.6468  -4.5710  -4.5179  -4.4738
    -4.3305  -3.8561  -3.5858  -3.5797  -3.4519  -3.2910  -3.1013  -3.0919
    -2.9720  -2.8244  -2.5117  -2.3906  -2.2645  -2.0815  -1.6263  -1.4969
    -1.3085  -0.9225  -0.8646  -0.8004  -0.7535  -0.6616  -0.5934  -0.5209
    -0.4984  -0.2696  -0.2427  -0.0436   0.0011   0.0988   0.1238   0.2049
     0.2733   0.3907   0.5124   0.6448   0.6738   0.8003   0.8518   0.8832
     0.9745   1.0578   1.2297   1.2694   1.3394   1.3943   1.4525   1.5435
     1.6594   1.6717   1.7419   1.8297   1.9083   1.9902   2.0279   2.0691
     2.1386   2.1919   2.2047   2.3162

          k = 0.0833 0.4167 0.4167 ( 24495 PWs)   bands (ev):

    -8.5697  -7.8180  -7.8007  -7.7048  -7.2174  -7.1289  -6.9746  -6.6664
    -6.5462  -6.4905  -6.2419  -6.2213  -5.9873  -5.7854  -5.7692  -5.5070
    -5.4928  -5.3292  -4.9713  -4.7695  -4.7051  -4.6213  -4.5343  -4.4499
    -4.3133  -3.8896  -3.6029  -3.5324  -3.4259  -3.2497  -3.1287  -2.9579
    -2.8729  -2.8020  -2.5098  -2.4041  -2.3676  -2.1413  -1.6983  -1.5445
    -1.3146  -0.9640  -0.8747  -0.8226  -0.7613  -0.6984  -0.5478  -0.4780
    -0.4172  -0.3030  -0.1624  -0.0982   0.0046   0.0592   0.1434   0.2719
     0.3715   0.3996   0.5158   0.6593   0.7172   0.8098   0.8367   0.9391
     1.0531   1.1100   1.1663   1.2595   1.3068   1.3716   1.4374   1.5140
     1.5706   1.6122   1.7565   1.8162   1.8912   1.9504   2.0621   2.1143
     2.1438   2.1956   2.2346   2.3248

          k = 0.2500 0.2500 0.2500 ( 24468 PWs)   bands (ev):

    -8.5802  -7.7786  -7.7634  -7.7619  -7.1905  -7.1283  -6.9585  -6.6246
    -6.5877  -6.5502  -6.2868  -6.2404  -5.9887  -5.7963  -5.7802  -5.4973
    -5.4832  -5.2420  -4.8788  -4.8116  -4.7043  -4.6199  -4.5883  -4.5161
    -4.2963  -3.7685  -3.5747  -3.5663  -3.4239  -3.1423  -3.1376  -3.0296
    -2.9818  -2.8440  -2.6049  -2.4066  -2.2988  -2.1535  -1.5753  -1.5061
    -1.3575  -0.9086  -0.8793  -0.7862  -0.7611  -0.6510  -0.6199  -0.5560
    -0.3792  -0.2829  -0.1837  -0.0595  -0.0024   0.0634   0.2004   0.2066
     0.2951   0.3832   0.5422   0.6841   0.6874   0.7852   0.8075   0.9412
     1.0342   1.0520   1.1803   1.2199   1.3052   1.3696   1.4642   1.5998
     1.6181   1.7063   1.7351   1.7745   1.8663   1.9251   1.9569   2.0378
     2.0701   2.1674   2.1848   2.2790

          k = 0.2500 0.2500 0.4167 ( 24512 PWs)   bands (ev):

    -8.5705  -7.8013  -7.7732  -7.7515  -7.2152  -7.1291  -6.9806  -6.6212
    -6.5855  -6.4988  -6.2509  -6.2099  -5.9525  -5.7984  -5.7881  -5.5075
    -5.4928  -5.3292  -4.8799  -4.8049  -4.7118  -4.6151  -4.5811  -4.5121
    -4.3182  -3.8008  -3.5668  -3.5530  -3.4452  -3.1447  -3.1236  -3.0448
    -2.9628  -2.8052  -2.5237  -2.4059  -2.3449  -2.1487  -1.5844  -1.5340
    -1.4146  -0.9182  -0.8689  -0.7888  -0.7760  -0.6387  -0.5717  -0.5140
    -0.4315  -0.3130  -0.1487  -0.1133   0.0345   0.1017   0.2007   0.2423
     0.2995   0.3874   0.5374   0.6752   0.7275   0.7836   0.8213   0.8832
     0.9714   1.0598   1.1925   1.2449   1.3296   1.3434   1.4675   1.5832
     1.6376   1.7036   1.7181   1.8365   1.8539   1.9535   1.9934   2.0280
     2.0556   2.1453   2.2255   2.3231

          k = 0.2500 0.4167 0.4167 ( 24531 PWs)   bands (ev):

    -8.5597  -7.8072  -7.7924  -7.7482  -7.2274  -7.1692  -6.9911  -6.5853
    -6.5238  -6.4977  -6.2482  -6.2034  -5.9573  -5.7756  -5.7442  -5.5050
    -5.4812  -5.3155  -4.9651  -4.8423  -4.7672  -4.6521  -4.5781  -4.5245
    -4.3278  -3.7931  -3.5927  -3.5322  -3.3912  -3.1604  -3.0834  -2.9493
    -2.8896  -2.7797  -2.5814  -2.4602  -2.3180  -2.2053  -1.6610  -1.5432
    -1.4458  -0.9577  -0.8511  -0.8235  -0.7622  -0.6507  -0.5118  -0.4931
    -0.3776  -0.3204  -0.1442  -0.0813   0.0252   0.1158   0.1952   0.2924
     0.3755   0.3971   0.5460   0.6585   0.7331   0.7788   0.8378   0.9310
     1.0084   1.0543   1.1510   1.2270   1.2816   1.3057   1.5046   1.5143
     1.5595   1.6090   1.7602   1.7895   1.8306   1.9337   2.0031   2.0457
     2.0979   2.1774   2.2327   2.2844

          k = 0.4167 0.4167 0.4167 ( 24551 PWs)   bands (ev):

    -8.5491  -7.8038  -7.7838  -7.7800  -7.2371  -7.2101  -7.0042  -6.5174
    -6.5019  -6.4915  -6.2496  -6.1910  -5.9444  -5.7472  -5.7061  -5.5114
    -5.4762  -5.3039  -4.9657  -4.9419  -4.8206  -4.6870  -4.6084  -4.5303
    -4.3550  -3.7325  -3.5693  -3.5682  -3.3114  -3.2027  -2.9802  -2.9293
    -2.8663  -2.7610  -2.6228  -2.5205  -2.2685  -2.2630  -1.6547  -1.5790
    -1.5256  -0.9759  -0.8561  -0.7879  -0.7329  -0.6217  -0.5027  -0.4622
    -0.3789  -0.2755  -0.1648  -0.0599  -0.0098   0.1669   0.2166   0.2729
     0.3730   0.5204   0.6285   0.6319   0.7074   0.8154   0.8443   0.8857
     0.9971   1.0818   1.1331   1.1650   1.2474   1.3521   1.3548   1.3800
     1.4769   1.6440   1.7187   1.7897   1.8507   1.8942   1.9718   2.0767
     2.0891   2.1520   2.1826   2.2768

          k = 0.0833-0.0833 0.0833 ( 24453 PWs)   bands (ev):

    -8.6099  -7.7507  -7.7403  -7.7343  -7.1221  -7.0700  -6.9112  -6.7401
    -6.6834  -6.6111  -6.2888  -6.2887  -6.0290  -5.8324  -5.7845  -5.5865
    -5.4845  -5.2365  -4.7839  -4.6556  -4.6228  -4.5096  -4.4872  -4.4365
    -4.2998  -3.8113  -3.7024  -3.5866  -3.3786  -3.3013  -3.1987  -3.0920
    -3.0473  -2.9225  -2.8075  -2.2881  -2.1358  -2.0413  -1.5245  -1.4117
    -1.1976  -0.8814  -0.8348  -0.7803  -0.7471  -0.7444  -0.5671  -0.5475
    -0.5458  -0.4194  -0.1961  -0.0371   0.0071   0.0896   0.1051   0.1857
     0.3054   0.4573   0.5923   0.6848   0.8174   0.8576   0.8842   0.9183
     0.9588   0.9979   1.0506   1.1154   1.1899   1.2714   1.4099   1.4781
     1.5566   1.5957   1.6203   1.7492   1.7638   1.8715   1.9551   2.0793
     2.0815   2.1506   2.2286   2.2803

          k = 0.0833-0.0833 0.2500 ( 24489 PWs)   bands (ev):

    -8.6008  -7.7808  -7.7456  -7.7240  -7.1531  -7.0635  -6.9326  -6.7372
    -6.6809  -6.5479  -6.2777  -6.2563  -6.0003  -5.8416  -5.7843  -5.5926
    -5.4878  -5.3021  -4.7895  -4.6530  -4.6102  -4.4961  -4.4881  -4.4311
    -4.3514  -3.8450  -3.6745  -3.5881  -3.3842  -3.3655  -3.2158  -3.0763
    -3.0362  -2.8760  -2.6823  -2.3237  -2.1271  -2.0264  -1.5372  -1.4685
    -1.2214  -0.9017  -0.8370  -0.7875  -0.7262  -0.7145  -0.6054  -0.5561
    -0.5214  -0.3777  -0.2036  -0.0058   0.0021   0.0536   0.0743   0.2061
     0.2731   0.3951   0.5192   0.6584   0.7294   0.7700   0.8457   0.9383
     0.9627   1.0342   1.1363   1.2420   1.2548   1.3038   1.4759   1.4980
     1.6330   1.6357   1.7461   1.7753   1.8235   1.9189   1.9656   2.0422
     2.1463   2.1827   2.2202   2.2937

          k = 0.2500-0.0833 0.0833 ( 24489 PWs)   bands (ev):

    -8.5996  -7.7901  -7.7317  -7.7310  -7.1366  -7.1077  -6.9230  -6.6962
    -6.6226  -6.6113  -6.2900  -6.2818  -6.0383  -5.7991  -5.7830  -5.5672
    -5.4706  -5.1979  -4.8497  -4.7331  -4.6599  -4.5383  -4.5095  -4.4706
    -4.2830  -3.8470  -3.6748  -3.5993  -3.3202  -3.2625  -3.1271  -3.0659
    -3.0025  -2.8886  -2.7820  -2.3141  -2.1928  -2.0820  -1.6061  -1.3920
    -1.2708  -0.8915  -0.8407  -0.8018  -0.7547  -0.7139  -0.6189  -0.5777
    -0.4548  -0.3912  -0.1813  -0.0027   0.0322   0.0492   0.0777   0.1721
     0.3007   0.4554   0.5766   0.6176   0.7859   0.8781   0.9236   0.9608
     0.9852   1.0314   1.0915   1.1325   1.2432   1.3337   1.4471   1.5253
     1.5817   1.6299   1.7055   1.7119   1.8094   1.8927   1.9665   2.0749
     2.1048   2.1859   2.2729   2.3479

          k =-0.2500-0.0833-0.0833 ( 24489 PWs)   bands (ev):

    -8.5996  -7.7897  -7.7320  -7.7311  -7.1456  -7.0980  -6.9218  -6.6988
    -6.6231  -6.6102  -6.3005  -6.2757  -6.0309  -5.8075  -5.7951  -5.5306
    -5.4743  -5.1949  -4.8569  -4.7360  -4.6481  -4.5713  -4.5402  -4.4838
    -4.2674  -3.7870  -3.6413  -3.5831  -3.3847  -3.2623  -3.1234  -3.0757
    -2.9948  -2.9076  -2.7341  -2.3319  -2.2246  -2.1001  -1.5928  -1.3967
    -1.2459  -0.9176  -0.8528  -0.7854  -0.7521  -0.6990  -0.6430  -0.5949
    -0.4185  -0.3510  -0.2148  -0.0140   0.0138   0.0486   0.1668   0.1854
     0.2805   0.4287   0.5542   0.6365   0.7602   0.8280   0.8731   0.9406
     1.0081   1.0442   1.1466   1.1908   1.2521   1.3854   1.4469   1.5001
     1.5666   1.6451   1.7217   1.7721   1.8052   1.9022   1.9682   1.9976
     2.0681   2.1631   2.3168   2.3345

          k = 0.0833-0.0833 0.4167 ( 24483 PWs)   bands (ev):

    -8.5912  -7.8188  -7.7403  -7.7129  -7.1834  -7.0584  -6.9532  -6.7342
    -6.6783  -6.4931  -6.2492  -6.2249  -5.9726  -5.8508  -5.7842  -5.6016
    -5.4921  -5.3768  -4.7953  -4.6502  -4.5983  -4.4872  -4.4813  -4.4265
    -4.3921  -3.8782  -3.6539  -3.5904  -3.4207  -3.3892  -3.2311  -3.0646
    -3.0160  -2.8350  -2.5559  -2.3568  -2.1204  -2.0136  -1.6443  -1.4313
    -1.2403  -0.9237  -0.8375  -0.8009  -0.7135  -0.6689  -0.6462  -0.5751
    -0.4978  -0.3553  -0.2137  -0.0140   0.0235   0.0356   0.0999   0.2088
     0.2332   0.3319   0.4550   0.5599   0.6964   0.7345   0.8562   0.9608
     0.9695   1.0694   1.1948   1.2793   1.3283   1.3988   1.4574   1.5524
     1.6626   1.6855   1.7446   1.9006   1.9422   1.9446   1.9764   2.0851
     2.1800   2.1882   2.2611   2.3329

          k = 0.4167-0.0833 0.0833 ( 24483 PWs)   bands (ev):

    -8.5886  -7.8326  -7.7224  -7.7209  -7.1568  -7.1399  -6.9292  -6.6746
    -6.6121  -6.5407  -6.2866  -6.2861  -6.0483  -5.7919  -5.7600  -5.5127
    -5.4611  -5.1588  -4.9805  -4.7592  -4.6894  -4.6102  -4.5490  -4.4663
    -4.2662  -3.8501  -3.6320  -3.5935  -3.3361  -3.2317  -3.1609  -2.9849
    -2.8743  -2.8609  -2.7124  -2.3254  -2.3021  -2.1369  -1.7222  -1.3396
    -1.3152  -0.9319  -0.8733  -0.7826  -0.7758  -0.6899  -0.6550  -0.6061
    -0.3912  -0.3148  -0.1853  -0.0376   0.0180   0.0476   0.1205   0.2126
     0.3130   0.3805   0.4885   0.6467   0.7455   0.8397   0.9011   0.9904
     1.0705   1.1160   1.1709   1.2418   1.3044   1.3649   1.4674   1.5167
     1.5598   1.6487   1.7085   1.7918   1.8770   1.9233   1.9846   2.0622
     2.1279   2.2277   2.2981   2.3693

          k =-0.4167-0.0833-0.0833 ( 24483 PWs)   bands (ev):

    -8.5886  -7.8325  -7.7223  -7.7211  -7.1635  -7.1329  -6.9290  -6.6752
    -6.6118  -6.5412  -6.2955  -6.2791  -6.0450  -5.8015  -5.7589  -5.4876
    -5.4701  -5.1576  -4.9819  -4.7640  -4.6806  -4.6317  -4.5574  -4.4741
    -4.2609  -3.8194  -3.6083  -3.6015  -3.3589  -3.2311  -3.1580  -2.9945
    -2.8820  -2.8549  -2.6791  -2.3765  -2.2849  -2.1488  -1.7192  -1.3491
    -1.2901  -0.9396  -0.8731  -0.8054  -0.7550  -0.6836  -0.6670  -0.6086
    -0.3826  -0.2658  -0.2243  -0.0486   0.0240   0.0590   0.1220   0.2143
     0.3132   0.4082   0.4303   0.6927   0.7541   0.7970   0.8932   0.9708
     1.0732   1.1052   1.1925   1.2421   1.3206   1.3944   1.4317   1.5471
     1.6015   1.6659   1.7462   1.8051   1.8423   1.9230   1.9685   2.0158
     2.0861   2.1962   2.2868   2.3422

          k = 0.2500-0.0833 0.2500 ( 24470 PWs)   bands (ev):

    -8.5904  -7.7834  -7.7719  -7.7229  -7.1673  -7.1024  -6.9445  -6.6930
    -6.6202  -6.5490  -6.2750  -6.2512  -6.0092  -5.8078  -5.7803  -5.5682
    -5.4815  -5.2703  -4.8505  -4.7345  -4.6557  -4.5376  -4.5028  -4.4598
    -4.3230  -3.8779  -3.6509  -3.5936  -3.3666  -3.2761  -3.1091  -3.0798
    -2.9855  -2.8524  -2.6726  -2.3562  -2.1889  -2.0773  -1.5938  -1.4739
    -1.2888  -0.9051  -0.8651  -0.8080  -0.7506  -0.6673  -0.6272  -0.5349
    -0.4817  -0.3254  -0.2077  -0.0056   0.0119   0.0594   0.0726   0.1729
     0.2980   0.4356   0.5493   0.6381   0.7468   0.8085   0.8847   0.9367
     0.9951   1.0564   1.1422   1.1890   1.2715   1.3078   1.4776   1.5205
     1.6055   1.6754   1.7290   1.7715   1.8800   1.9296   2.0212   2.0589
     2.1168   2.2145   2.3041   2.3261

          k = 0.2500-0.2500 0.0833 ( 24470 PWs)   bands (ev):

    -8.5894  -7.7873  -7.7688  -7.7226  -7.1511  -7.1437  -6.9363  -6.6232
    -6.6133  -6.5915  -6.2905  -6.2770  -6.0379  -5.7680  -5.7550  -5.5765
    -5.4602  -5.1706  -4.8567  -4.8301  -4.6993  -4.5595  -4.5484  -4.4952
    -4.2951  -3.8479  -3.6768  -3.5887  -3.2727  -3.1547  -3.1356  -3.0191
    -2.9994  -2.8434  -2.7943  -2.3697  -2.1738  -2.1186  -1.6457  -1.3827
    -1.3760  -0.9070  -0.8521  -0.8014  -0.7583  -0.6860  -0.6126  -0.5587
    -0.4446  -0.3180  -0.1329  -0.0406  -0.0072   0.0627   0.0820   0.1842
     0.3403   0.4161   0.5342   0.5833   0.7357   0.8751   0.9032   0.9495
     1.0188   1.0191   1.1380   1.2078   1.2845   1.3280   1.4728   1.5334
     1.5883   1.6894   1.7039   1.7277   1.7688   1.9045   1.9648   2.0834
     2.1107   2.2890   2.3604   2.3763

          k =-0.2500-0.2500-0.0833 ( 24470 PWs)   bands (ev):

    -8.5894  -7.7838  -7.7724  -7.7223  -7.1728  -7.1205  -6.9356  -6.6281
    -6.6123  -6.5899  -6.3073  -6.2681  -6.0245  -5.7949  -5.7724  -5.4891
    -5.4748  -5.1654  -4.8773  -4.8178  -4.6973  -4.6228  -4.5958  -4.5205
    -4.2645  -3.7343  -3.6115  -3.5676  -3.3963  -3.1479  -3.1358  -3.0179
    -2.9955  -2.8878  -2.6894  -2.3941  -2.2530  -2.1597  -1.6108  -1.4577
    -1.2654  -0.9251  -0.8980  -0.7474  -0.7471  -0.6820  -0.6673  -0.5931
    -0.3247  -0.2711  -0.2250  -0.0107  -0.0099   0.0391   0.1823   0.1832
     0.2837   0.3792   0.5119   0.6752   0.6948   0.7826   0.8281   0.9473
     1.0485   1.1018   1.1634   1.2251   1.3036   1.3755   1.4723   1.5614
     1.6205   1.6878   1.7629   1.7875   1.8437   1.8887   1.8955   1.9954
     2.1174   2.1269   2.2071   2.3441

          k = 0.2500-0.0833 0.4167 ( 24470 PWs)   bands (ev):

    -8.5807  -7.8101  -7.7765  -7.7135  -7.1973  -7.0982  -6.9651  -6.6897
    -6.6182  -6.4954  -6.2444  -6.2192  -5.9814  -5.8163  -5.7772  -5.5687
    -5.4961  -5.3529  -4.8514  -4.7352  -4.6531  -4.5334  -4.4975  -4.4484
    -4.3529  -3.9088  -3.6399  -3.5836  -3.4098  -3.2847  -3.0958  -3.0878
    -2.9661  -2.8191  -2.5577  -2.3991  -2.1860  -2.0746  -1.6407  -1.5015
    -1.2961  -0.9267  -0.8802  -0.8175  -0.7379  -0.6685  -0.5944  -0.5354
    -0.4692  -0.2895  -0.2413   0.0076   0.0225   0.0627   0.0971   0.1582
     0.2933   0.3965   0.5242   0.6002   0.6633   0.8190   0.8876   0.9209
     1.0266   1.0807   1.2053   1.2234   1.2646   1.3499   1.4203   1.5354
     1.6457   1.6840   1.7406   1.8477   1.9198   2.0032   2.0337   2.1090
     2.1606   2.2140   2.2762   2.3129

          k = 0.4167-0.2500 0.0833 ( 24470 PWs)   bands (ev):

    -8.5787  -7.8215  -7.7652  -7.7131  -7.1920  -7.1534  -6.9453  -6.6167
    -6.5901  -6.5197  -6.2972  -6.2735  -6.0371  -5.7579  -5.7263  -5.5300
    -5.4523  -5.1412  -4.9732  -4.8465  -4.7390  -4.6415  -4.5591  -4.5259
    -4.2968  -3.7852  -3.6485  -3.5794  -3.2762  -3.1926  -3.0867  -3.0009
    -2.8787  -2.8305  -2.7470  -2.3927  -2.2316  -2.1793  -1.7208  -1.4495
    -1.3269  -0.9470  -0.8526  -0.7973  -0.7603  -0.6724  -0.6398  -0.5705
    -0.3620  -0.2308  -0.1270  -0.0397  -0.0165   0.0502   0.1243   0.2203
     0.3333   0.3732   0.4597   0.5677   0.6851   0.8136   0.8743   0.9530
     1.0279   1.0604   1.1995   1.2762   1.3511   1.4043   1.4397   1.5101
     1.5988   1.6729   1.7194   1.8050   1.8498   1.9092   1.9570   2.1197
     2.1660   2.2437   2.2909   2.3277

          k =-0.4167-0.2500-0.0833 ( 24470 PWs)   bands (ev):

    -8.5787  -7.8211  -7.7657  -7.7130  -7.1985  -7.1463  -6.9453  -6.6154
    -6.5917  -6.5203  -6.3053  -6.2688  -6.0312  -5.7762  -5.7294  -5.4785
    -5.4650  -5.1399  -4.9762  -4.8464  -4.7443  -4.6617  -4.5887  -4.5373
    -4.2809  -3.7267  -3.6153  -3.5808  -3.3375  -3.1881  -3.0684  -3.0169
    -2.8695  -2.8534  -2.6950  -2.3946  -2.2795  -2.2059  -1.7091  -1.4709
    -1.2799  -0.9436  -0.8811  -0.7894  -0.7469  -0.6766  -0.6535  -0.5822
    -0.3093  -0.2019  -0.1497  -0.0576  -0.0105   0.0550   0.1135   0.2089
     0.3370   0.3836   0.4300   0.6198   0.6799   0.7650   0.8291   0.9984
     1.0448   1.0821   1.2239   1.2258   1.3435   1.3834   1.4834   1.5920
     1.6071   1.6722   1.7596   1.8254   1.8591   1.9259   1.9525   2.0459
     2.1141   2.1315   2.1824   2.3811

          k =-0.0833 0.4167 0.2500 ( 24470 PWs)   bands (ev):

    -8.5794  -7.8255  -7.7625  -7.7134  -7.1858  -7.1360  -6.9521  -6.6701
    -6.5581  -6.5319  -6.2723  -6.2530  -6.0191  -5.7824  -5.7679  -5.5185
    -5.4737  -5.2397  -4.9754  -4.7630  -4.6972  -4.6093  -4.5380  -4.4532
    -4.2967  -3.8832  -3.6178  -3.5692  -3.3738  -3.2419  -3.1441  -2.9694
    -2.8694  -2.8335  -2.6285  -2.3739  -2.3058  -2.1364  -1.7091  -1.4448
    -1.3196  -0.9440  -0.8866  -0.8038  -0.7620  -0.6900  -0.6098  -0.5329
    -0.3996  -0.2757  -0.2013  -0.0669  -0.0112   0.0405   0.1553   0.2043
     0.3532   0.4188   0.5162   0.6598   0.7302   0.8134   0.8947   0.9373
     1.0452   1.1388   1.1703   1.2407   1.2866   1.3322   1.4554   1.5163
     1.5837   1.6295   1.6853   1.8091   1.8997   1.9980   2.0245   2.0808
     2.1391   2.2291   2.2874   2.3471

          k =-0.0833-0.4167-0.2500 ( 24470 PWs)   bands (ev):

    -8.5794  -7.8254  -7.7624  -7.7136  -7.1891  -7.1322  -6.9523  -6.6707
    -6.5584  -6.5316  -6.2756  -6.2519  -6.0153  -5.7932  -5.7656  -5.4961
    -5.4808  -5.2383  -4.9770  -4.7667  -4.6928  -4.6272  -4.5455  -4.4622
    -4.2915  -3.8545  -3.6028  -3.5644  -3.3941  -3.2414  -3.1432  -2.9810
    -2.8650  -2.8371  -2.5938  -2.3908  -2.3298  -2.1446  -1.7081  -1.4339
    -1.3209  -0.9493  -0.8707  -0.8112  -0.7675  -0.6892  -0.6076  -0.5398
    -0.3857  -0.2600  -0.2204  -0.0744  -0.0097   0.0485   0.1684   0.2196
     0.3452   0.4076   0.4863   0.6930   0.7494   0.8040   0.8260   0.9572
     1.0684   1.1394   1.1639   1.2544   1.2903   1.3481   1.4295   1.5327
     1.6229   1.6470   1.7281   1.8035   1.8631   1.9211   2.0476   2.0779
     2.1264   2.2091   2.2602   2.3395

          k = 0.4167-0.0833 0.4167 ( 24495 PWs)   bands (ev):

    -8.5697  -7.8182  -7.8007  -7.7046  -7.2152  -7.1319  -6.9741  -6.6659
    -6.5455  -6.4914  -6.2401  -6.2206  -5.9917  -5.7757  -5.7703  -5.5247
    -5.4894  -5.3310  -4.9697  -4.7668  -4.7061  -4.6057  -4.5281  -4.4393
    -4.3185  -3.9168  -3.6159  -3.5418  -3.4085  -3.2497  -3.1285  -2.9448
    -2.8775  -2.8008  -2.5392  -2.4258  -2.3052  -2.1366  -1.6980  -1.5540
    -1.3099  -0.9600  -0.8972  -0.8178  -0.7543  -0.6997  -0.5518  -0.4685
    -0.4293  -0.2925  -0.1822  -0.0507  -0.0099   0.0420   0.1369   0.2309
     0.3868   0.4317   0.5361   0.6556   0.6990   0.7817   0.8629   0.9362
     1.0411   1.1209   1.1872   1.2664   1.2874   1.3781   1.4149   1.4946
     1.5352   1.6355   1.6771   1.8690   1.9142   1.9682   2.0751   2.1194
     2.1516   2.2349   2.2442   2.3297

          k = 0.4167-0.4167 0.0833 ( 24495 PWs)   bands (ev):

    -8.5682  -7.8154  -7.7998  -7.7041  -7.2311  -7.1634  -6.9577  -6.6176
    -6.5120  -6.4958  -6.3048  -6.2678  -6.0316  -5.7252  -5.6903  -5.5118
    -5.4523  -5.1224  -4.9698  -4.9609  -4.7882  -4.6935  -4.6101  -4.5151
    -4.3244  -3.6963  -3.6419  -3.5714  -3.2449  -3.1965  -3.0969  -2.9383
    -2.8458  -2.7893  -2.7635  -2.4167  -2.2461  -2.2203  -1.7379  -1.5663
    -1.2888  -0.9784  -0.8103  -0.7588  -0.7431  -0.6761  -0.6566  -0.5938
    -0.2916  -0.1777  -0.1156  -0.0333  -0.0188   0.1375   0.1404   0.2136
     0.3185   0.3512   0.4157   0.5221   0.6792   0.7132   0.8666   0.8870
     1.0043   1.1277   1.1851   1.2805   1.2942   1.3886   1.4845   1.5325
     1.6602   1.6986   1.7502   1.7923   1.8141   1.9865   2.0209   2.0557
     2.1366   2.1459   2.2216   2.3624

          k =-0.4167-0.4167-0.0833 ( 24495 PWs)   bands (ev):

    -8.5682  -7.8145  -7.8007  -7.7041  -7.2330  -7.1612  -6.9578  -6.6169
    -6.5134  -6.4954  -6.3086  -6.2656  -6.0290  -5.7357  -5.6932  -5.4753
    -5.4653  -5.1224  -4.9749  -4.9567  -4.7966  -4.6971  -4.6166  -4.5328
    -4.3130  -3.6640  -3.6255  -3.5741  -3.2634  -3.2311  -3.0682  -2.9374
    -2.8430  -2.8186  -2.7286  -2.4027  -2.2644  -2.2505  -1.7292  -1.5776
    -1.2677  -0.9759  -0.8039  -0.7864  -0.7170  -0.6813  -0.6742  -0.5913
    -0.2660  -0.1553  -0.1173  -0.0441  -0.0243   0.1049   0.1365   0.2278
     0.3103   0.3333   0.4668   0.5295   0.6339   0.7054   0.8209   0.9598
     1.0809   1.1066   1.1895   1.1948   1.3138   1.4085   1.4283   1.6268
     1.6419   1.6915   1.7805   1.7818   1.8795   1.9527   1.9825   2.0667
     2.0934   2.1398   2.1916   2.3471

          k = 0.2500-0.2500 0.2500 ( 24468 PWs)   bands (ev):

    -8.5802  -7.7821  -7.7633  -7.7587  -7.1746  -7.1467  -6.9577  -6.6191
    -6.5891  -6.5529  -6.2764  -6.2416  -6.0054  -5.7746  -5.7584  -5.5738
    -5.4743  -5.2477  -4.8579  -4.8276  -4.7008  -4.5578  -4.5400  -4.4921
    -4.3274  -3.8739  -3.6618  -3.5771  -3.3193  -3.1410  -3.1354  -3.0316
    -2.9689  -2.8193  -2.6997  -2.4156  -2.1700  -2.1247  -1.6152  -1.4795
    -1.3858  -0.9066  -0.8907  -0.8231  -0.7409  -0.6386  -0.5827  -0.5550
    -0.4611  -0.2313  -0.1796  -0.0895  -0.0144   0.0920   0.1235   0.1786
     0.3295   0.4390   0.5558   0.6157   0.6978   0.8322   0.9273   0.9421
     1.0052   1.0127   1.1545   1.2114   1.2188   1.3110   1.4572   1.5287
     1.6438   1.7255   1.7348   1.7991   1.8095   1.9118   1.9635   2.0174
     2.1076   2.2922   2.3157   2.3855

          k = 0.2500-0.2500 0.4167 ( 24512 PWs)   bands (ev):

    -8.5705  -7.8016  -7.7768  -7.7478  -7.2048  -7.1432  -6.9783  -6.6161
    -6.5867  -6.5015  -6.2438  -6.2069  -5.9738  -5.7817  -5.7619  -5.5674
    -5.4937  -5.3360  -4.8596  -4.8241  -4.7036  -4.5518  -4.5320  -4.4917
    -4.3491  -3.9000  -3.6572  -3.5629  -3.3601  -3.1417  -3.1184  -3.0464
    -2.9379  -2.7951  -2.5991  -2.4613  -2.1675  -2.1328  -1.6319  -1.5253
    -1.3933  -0.9270  -0.9062  -0.8437  -0.7267  -0.6001  -0.5841  -0.5457
    -0.4375  -0.2372  -0.2239  -0.0441  -0.0084   0.1213   0.1715   0.1743
     0.3098   0.4257   0.5598   0.6431   0.6503   0.7978   0.9019   0.9719
     0.9934   1.0317   1.1952   1.2080   1.2971   1.3050   1.3320   1.5105
     1.6132   1.7588   1.7680   1.7864   1.8409   1.9915   2.0214   2.0364
     2.1170   2.2049   2.2975   2.3943

          k = 0.4167-0.2500 0.2500 ( 24512 PWs)   bands (ev):

    -8.5694  -7.8148  -7.7572  -7.7536  -7.1965  -7.1754  -6.9681  -6.5881
    -6.5559  -6.5168  -6.2804  -6.2378  -6.0016  -5.7579  -5.7336  -5.5342
    -5.4659  -5.2240  -4.9678  -4.8459  -4.7481  -4.6348  -4.5570  -4.5195
    -4.3247  -3.8126  -3.6342  -3.5617  -3.3107  -3.1760  -3.0914  -2.9640
    -2.8851  -2.8014  -2.6845  -2.4429  -2.2349  -2.1858  -1.6928  -1.4585
    -1.4318  -0.9495  -0.8773  -0.8082  -0.7483  -0.6487  -0.5728  -0.5441
    -0.3946  -0.1937  -0.1379  -0.1052  -0.0193   0.0880   0.1664   0.2238
     0.3517   0.4283   0.5198   0.5793   0.6961   0.8206   0.8681   0.9379
     1.0012   1.0617   1.1643   1.2438   1.2973   1.3779   1.4246   1.4958
     1.6239   1.6895   1.7253   1.7964   1.8559   1.8864   1.9685   2.0729
     2.1222   2.2199   2.2815   2.3189

          k =-0.4167-0.2500-0.2500 ( 24512 PWs)   bands (ev):

    -8.5694  -7.8142  -7.7577  -7.7536  -7.2068  -7.1639  -6.9687  -6.5892
    -6.5550  -6.5171  -6.2854  -6.2370  -5.9942  -5.7762  -5.7366  -5.4905
    -5.4729  -5.2220  -4.9711  -4.8444  -4.7555  -4.6571  -4.5839  -4.5305
    -4.3091  -3.7608  -3.5973  -3.5572  -3.3642  -3.1753  -3.0780  -2.9855
    -2.8778  -2.8145  -2.6379  -2.4248  -2.3071  -2.2052  -1.6849  -1.4799
    -1.3962  -0.9497  -0.8523  -0.8031  -0.7668  -0.6633  -0.5811  -0.5423
    -0.3429  -0.2586  -0.0989  -0.0852  -0.0264   0.0694   0.1738   0.2432
     0.3561   0.3903   0.5092   0.6125   0.7055   0.7811   0.8245   0.9897
     1.0120   1.0710   1.1736   1.2348   1.2973   1.3630   1.5024   1.5480
     1.5980   1.6545   1.7389   1.8066   1.8634   1.8961   1.9782   2.0504
     2.1141   2.1569   2.1980   2.3033

          k = 0.4167-0.2500 0.4167 ( 24531 PWs)   bands (ev):

    -8.5597  -7.8079  -7.7925  -7.7474  -7.2201  -7.1780  -6.9899  -6.5841
    -6.5232  -6.4992  -6.2449  -6.2020  -5.9664  -5.7571  -5.7410  -5.5379
    -5.4822  -5.3183  -4.9620  -4.8453  -4.7578  -4.6284  -4.5525  -4.5148
    -4.3426  -3.8404  -3.6299  -3.5426  -3.3435  -3.1593  -3.0936  -2.9230
    -2.8972  -2.7755  -2.6104  -2.4946  -2.2366  -2.1921  -1.6669  -1.5573
    -1.4360  -0.9557  -0.9023  -0.8268  -0.7331  -0.6355  -0.5118  -0.4977
    -0.4218  -0.2541  -0.1768  -0.0565  -0.0007   0.1456   0.1701   0.2544
     0.3727   0.4226   0.5772   0.6203   0.7307   0.8262   0.8665   0.8960
     0.9637   1.0499   1.1579   1.2328   1.2951   1.3222   1.3975   1.5163
     1.5660   1.6102   1.6919   1.8360   1.8695   1.9083   2.0125   2.0449
     2.1349   2.2081   2.2512   2.3315

          k = 0.4167-0.4167 0.2500 ( 24531 PWs)   bands (ev):

    -8.5589  -7.8101  -7.7899  -7.7452  -7.2269  -7.1944  -6.9812  -6.5593
    -6.5087  -6.4937  -6.2866  -6.2289  -5.9909  -5.7307  -5.6966  -5.5199
    -5.4653  -5.2078  -4.9655  -4.9545  -4.8001  -4.6846  -4.6073  -4.5150
    -4.3506  -3.7240  -3.6249  -3.5602  -3.2535  -3.2070  -3.0504  -2.9224
    -2.8557  -2.7733  -2.7102  -2.4731  -2.2537  -2.2243  -1.7019  -1.5632
    -1.4196  -0.9765  -0.8483  -0.7715  -0.7251  -0.6323  -0.5900  -0.5456
    -0.3374  -0.1757  -0.1206  -0.1052  -0.0261   0.1834   0.1942   0.2213
     0.3599   0.3936   0.5181   0.5680   0.6947   0.7588   0.8459   0.9169
     0.9740   1.0906   1.1317   1.2719   1.2946   1.3430   1.4224   1.4932
     1.6393   1.7009   1.7410   1.7708   1.7993   1.8463   1.9460   2.0709
     2.1406   2.1461   2.2554   2.2987

          k =-0.4167-0.4167-0.2500 ( 24531 PWs)   bands (ev):

    -8.5589  -7.8093  -7.7908  -7.7451  -7.2310  -7.1898  -6.9815  -6.5586
    -6.5099  -6.4934  -6.2889  -6.2286  -5.9875  -5.7409  -5.6996  -5.4921
    -5.4707  -5.2072  -4.9708  -4.9494  -4.8080  -4.6919  -4.6124  -4.5318
    -4.3393  -3.7000  -3.5925  -3.5700  -3.2846  -3.2175  -3.0303  -2.9287
    -2.8542  -2.7890  -2.6849  -2.4580  -2.2660  -2.2594  -1.6940  -1.5776
    -1.4021  -0.9757  -0.8219  -0.7727  -0.7395  -0.6516  -0.5962  -0.5347
    -0.3092  -0.2198  -0.1004  -0.0765  -0.0353   0.1439   0.1841   0.2593
     0.3663   0.3848   0.5395   0.5528   0.6835   0.7281   0.8475   0.9335
     1.0269   1.1030   1.1744   1.1923   1.2365   1.4047   1.4252   1.5345
     1.6069   1.6591   1.7590   1.7889   1.7922   1.8885   1.9606   2.0923
     2.1120   2.1547   2.1817   2.2812

          k = 0.4167-0.4167 0.4167 ( 24551 PWs)   bands (ev):

    -8.5491  -7.8048  -7.7837  -7.7793  -7.2246  -7.2232  -7.0037  -6.5172
    -6.5017  -6.4917  -6.2481  -6.1903  -5.9488  -5.7372  -5.7028  -5.5302
    -5.4783  -5.3047  -4.9609  -4.9476  -4.8127  -4.6770  -4.6039  -4.5152
    -4.3658  -3.7531  -3.6156  -3.5486  -3.2797  -3.1987  -3.0049  -2.9097
    -2.8673  -2.7560  -2.6369  -2.5358  -2.2610  -2.2273  -1.6633  -1.5610
    -1.5406  -0.9748  -0.8857  -0.7966  -0.7103  -0.6057  -0.4993  -0.4709
    -0.4027  -0.2342  -0.1819  -0.0634  -0.0212   0.2002   0.2331   0.2413
     0.3495   0.4841   0.6609   0.6775   0.7214   0.7875   0.8445   0.9404
     0.9417   1.0391   1.0592   1.2268   1.2755   1.3164   1.3440   1.4320
     1.4915   1.6558   1.6624   1.7930   1.8565   1.8755   1.9459   2.0518
     2.0989   2.2026   2.2306   2.2512

     highest occupied level (ev):     2.3943

!    total energy              =    -327.03562604 Ry
     estimated scf accuracy    <       0.00000003 Ry

     The total energy is the sum of the following terms:
     one-electron contribution =     -81.48462906 Ry
     hartree contribution      =      90.16517017 Ry
     xc contribution           =     -94.38514921 Ry
     ewald contribution        =    -241.33101794 Ry

     convergence has been achieved in  28 iterations

     Forces acting on atoms (cartesian axes, Ry/au):

     atom    1 type  1   force =    -0.00158642   -0.00158642   -0.00740407
     atom    2 type  1   force =    -0.01281558    0.01281558    0.00064755
     atom    3 type  1   force =     0.01281558   -0.01281558    0.00064755
     atom    4 type  1   force =     0.00158642    0.00158642   -0.00740407
     atom    5 type  1   force =    -0.00163078   -0.00163078   -0.00485519
     atom    6 type  1   force =    -0.00653684    0.00653684    0.00096517
     atom    7 type  1   force =     0.00653684   -0.00653684    0.00096517
     atom    8 type  1   force =     0.00163078    0.00163078   -0.00485519
     atom    9 type  1   force =     0.00000000    0.00000000   -0.02933807
     atom   10 type  1   force =     0.00000000    0.00000000    0.00336767
     atom   11 type  1   force =     0.00140289   -0.00069620   -0.00087767
     atom   12 type  1   force =    -0.00140289    0.00069620   -0.00087767
     atom   13 type  1   force =     0.00825997    0.01124423    0.01920444
     atom   14 type  1   force =    -0.00825997   -0.01124423    0.01920444
     atom   15 type  1   force =    -0.00069620    0.00140289   -0.00087767
     atom   16 type  1   force =     0.00069620   -0.00140289   -0.00087767
     atom   17 type  1   force =     0.01124423    0.00825997    0.01920444
     atom   18 type  1   force =    -0.01124423   -0.00825997    0.01920444
     atom   19 type  1   force =    -0.00412961   -0.00412961   -0.00777746
     atom   20 type  1   force =     0.01128116   -0.02273988    0.00321581
     atom   21 type  1   force =    -0.02273988    0.01128116    0.00321581
     atom   22 type  1   force =    -0.00523316   -0.00523316    0.01069638
     atom   23 type  1   force =    -0.00244710   -0.00244710   -0.00228028
     atom   24 type  1   force =     0.02336006    0.00730961   -0.00526746
     atom   25 type  1   force =     0.00730961    0.02336006   -0.00526746
     atom   26 type  1   force =     0.01083651    0.01083651   -0.00531482
     atom   27 type  1   force =     0.00523316    0.00523316    0.01069638
     atom   28 type  1   force =     0.02273988   -0.01128116    0.00321581
     atom   29 type  1   force =    -0.01128116    0.02273988    0.00321581
     atom   30 type  1   force =     0.00412961    0.00412961   -0.00777746
     atom   31 type  1   force =    -0.01083651   -0.01083651   -0.00531482
     atom   32 type  1   force =    -0.00730961   -0.02336006   -0.00526746
     atom   33 type  1   force =    -0.02336006   -0.00730961   -0.00526746
     atom   34 type  1   force =     0.00244710    0.00244710   -0.00228028
     atom   35 type  1   force =    -0.00621422   -0.02626649    0.00174648
     atom   36 type  1   force =     0.01233441   -0.01233441   -0.01061185
     atom   37 type  1   force =    -0.00270579    0.00270579    0.00287657
     atom   38 type  1   force =     0.02626649    0.00621422    0.00174648
     atom   39 type  1   force =    -0.02626649   -0.00621422    0.00174648
     atom   40 type  1   force =     0.00270579   -0.00270579    0.00287657
     atom   41 type  1   force =    -0.01233441    0.01233441   -0.01061185
     atom   42 type  1   force =     0.00621422    0.02626649    0.00174648

     Total force =     0.119027     Total SCF correction =     0.000234


     Computing stress (Cartesian axis) and pressure

          total   stress  (Ry/bohr**3)                   (kbar)     P=      -34.06
  -0.00024624   0.00000319   0.00000000          -36.22        0.47        0.00
   0.00000319  -0.00024624   0.00000000            0.47      -36.22        0.00
   0.00000000   0.00000000  -0.00020206            0.00        0.00      -29.72


     Writing output data file ./Si64.save/

     init_run     :     29.13s CPU     58.82s WALL (       1 calls)
     electrons    :   5869.98s CPU  12573.82s WALL (       1 calls)
     forces       :     17.91s CPU     47.19s WALL (       1 calls)
     stress       :     10.43s CPU     18.18s WALL (       1 calls)

     Called by init_run:
     wfcinit      :     29.02s CPU     58.69s WALL (       1 calls)
     potinit      :      0.01s CPU      0.02s WALL (       1 calls)
     hinit0       :      0.02s CPU      0.02s WALL (       1 calls)

     Called by electrons:
     c_bands      :   5841.37s CPU  12543.64s WALL (      29 calls)
     sum_band     :     25.47s CPU     26.33s WALL (      29 calls)
     v_of_rho     :      0.35s CPU      0.47s WALL (      29 calls)
     mix_rho      :      2.66s CPU      3.20s WALL (      29 calls)

     Called by c_bands:
     init_us_2    :      1.56s CPU      2.66s WALL (    2196 calls)
     cegterg      :   5744.13s CPU  12333.02s WALL (    1044 calls)

     Called by *egterg:
     cdiaghg      :   1615.66s CPU   2143.81s WALL (    8474 calls)
     h_psi        :   1457.96s CPU   3929.54s WALL (    8546 calls)
     g_psi        :      0.43s CPU      0.75s WALL (    7466 calls)

     Called by h_psi:
     h_psi:calbec :    953.13s CPU   2540.13s WALL (    8546 calls)
     vloc_psi     :    342.34s CPU    574.12s WALL (    8546 calls)
     add_vuspsi   :    161.54s CPU    809.67s WALL (    8546 calls)

     General routines
     calbec       :    975.89s CPU   2591.31s WALL (    8726 calls)
     fft          :      0.21s CPU      0.30s WALL (     298 calls)
     ffts         :      0.02s CPU      0.02s WALL (      29 calls)
     fftw         :    356.07s CPU    578.96s WALL (  573304 calls)

     Parallel routines
     fft_scatt_xy :     13.84s CPU     14.67s WALL (  573631 calls)
     fft_scatt_yz :    274.42s CPU    427.70s WALL (  573631 calls)

     PWSCF        :      1h38m CPU      3h31m WALL


   This run was terminated on:   1:17: 3  24Feb2022            

=------------------------------------------------------------------------------=
   JOB DONE.
=------------------------------------------------------------------------------=
