
     Program PWSCF v.6.7MaX starts on 24Feb2022 at  8:10:38 

     This program is part of the open-source Quantum ESPRESSO suite
     for quantum simulation of materials; please cite
         "P. Giannozzi et al., J. Phys.:Condens. Matter 21 395502 (2009);
         "P. Giannozzi et al., J. Phys.:Condens. Matter 29 465901 (2017);
          URL http://www.quantum-espresso.org", 
     in publications or presentations arising from this work. More details at
     http://www.quantum-espresso.org/quote

     Parallel version (MPI), running on    36 processors

     MPI processes distributed on     1 nodes
     R & G space division:  proc/nbgrp/npool/nimage =      36
     Waiting for input...
     Reading input from standard input

     Current dimensions of program PWSCF are:
     Max number of different atomic species (ntypx) = 10
     Max number of k-points (npk) =  40000
     Max angular momentum in pseudopotentials (lmaxx) =  3

     Subspace diagonalization in iterative solution of the eigenvalue problem:
     a serial algorithm will be used

     Message from routine setup:
     using ibrav=0 with symmetry is DISCOURAGED, use correct ibrav instead

     Parallelization info
     --------------------
     sticks:   dense  smooth     PW     G-vecs:    dense   smooth      PW
     Min         150     150     40                 8371     8371    1160
     Max         152     152     41                 8377     8377    1165
     Sum        5433    5433   1457               301459   301459   41851



     bravais-lattice index     =            0
     lattice parameter (alat)  =      20.6660  a.u.
     unit-cell volume          =    8826.0878 (a.u.)^3
     number of atoms/cell      =           42
     number of atomic types    =            1
     number of electrons       =       168.00
     number of Kohn-Sham states=           84
     kinetic-energy cutoff     =      40.0000  Ry
     charge density cutoff     =     160.0000  Ry
     scf convergence threshold =      1.0E-06
     mixing beta               =       0.7000
     number of iterations used =            8  plain     mixing
     Exchange-correlation=  SLA  PW   PBE  PBE
                           (   1   4   3   4   0   0   0)

     celldm(1)=  20.665984  celldm(2)=   0.000000  celldm(3)=   0.000000
     celldm(4)=   0.000000  celldm(5)=   0.000000  celldm(6)=   0.000000

     crystal axes: (cart. coord. in units of alat)
               a(1) = (   1.000000   0.000000   0.000000 )  
               a(2) = (   0.000000   1.000000   0.000000 )  
               a(3) = (   0.000000   0.000000   1.000000 )  

     reciprocal axes: (cart. coord. in units 2 pi/alat)
               b(1) = (  1.000000  0.000000  0.000000 )  
               b(2) = (  0.000000  1.000000  0.000000 )  
               b(3) = (  0.000000  0.000000  1.000000 )  


     PseudoPot. # 1 for Si read from file:
     ./Si.pbe-rrkj.UPF
     MD5 check sum: cf7ab5690cd9a85b22c4813f7e365554
     Pseudo is Norm-conserving, Zval =  4.0
     Generated by new atomic code, or converted to UPF format
     Using radial grid of  883 points,  3 beta functions with: 
                l(1) =   0
                l(2) =   0
                l(3) =   1

     atomic species   valence    mass     pseudopotential
        Si             4.00    28.08600     Si( 1.00)

      4 Sym. Ops. (no inversion) found



   Cartesian axes

     site n.     atom                  positions (alat units)
         1           Si  tau(   1) = (   0.2500000   0.2500000   0.0000000  )
         2           Si  tau(   2) = (   0.7500000   0.2500000   0.0000000  )
         3           Si  tau(   3) = (   0.2500000   0.7500000   0.0000000  )
         4           Si  tau(   4) = (   0.7500000   0.7500000   0.0000000  )
         5           Si  tau(   5) = (   0.2500000   0.2500000   0.5000000  )
         6           Si  tau(   6) = (   0.7500000   0.2500000   0.5000000  )
         7           Si  tau(   7) = (   0.2500000   0.7500000   0.5000000  )
         8           Si  tau(   8) = (   0.7500000   0.7500000   0.5000000  )
         9           Si  tau(   9) = (   0.5000000   0.5000000   0.0000000  )
        10           Si  tau(  10) = (   0.5000000   0.5000000   0.5000000  )
        11           Si  tau(  11) = (   0.2500000   0.5000000   0.2500000  )
        12           Si  tau(  12) = (   0.7500000   0.5000000   0.2500000  )
        13           Si  tau(  13) = (   0.2500000   0.5000000   0.7500000  )
        14           Si  tau(  14) = (   0.7500000   0.5000000   0.7500000  )
        15           Si  tau(  15) = (   0.5000000   0.2500000   0.2500000  )
        16           Si  tau(  16) = (   0.5000000   0.7500000   0.2500000  )
        17           Si  tau(  17) = (   0.5000000   0.2500000   0.7500000  )
        18           Si  tau(  18) = (   0.5000000   0.7500000   0.7500000  )
        19           Si  tau(  19) = (   0.3750000   0.3750000   0.1250000  )
        20           Si  tau(  20) = (   0.8750000   0.3750000   0.1250000  )
        21           Si  tau(  21) = (   0.3750000   0.8750000   0.1250000  )
        22           Si  tau(  22) = (   0.8750000   0.8750000   0.1250000  )
        23           Si  tau(  23) = (   0.3750000   0.3750000   0.6250000  )
        24           Si  tau(  24) = (   0.8750000   0.3750000   0.6250000  )
        25           Si  tau(  25) = (   0.3750000   0.8750000   0.6250000  )
        26           Si  tau(  26) = (   0.8750000   0.8750000   0.6250000  )
        27           Si  tau(  27) = (   0.1250000   0.1250000   0.1250000  )
        28           Si  tau(  28) = (   0.6250000   0.1250000   0.1250000  )
        29           Si  tau(  29) = (   0.1250000   0.6250000   0.1250000  )
        30           Si  tau(  30) = (   0.6250000   0.6250000   0.1250000  )
        31           Si  tau(  31) = (   0.1250000   0.1250000   0.6250000  )
        32           Si  tau(  32) = (   0.6250000   0.1250000   0.6250000  )
        33           Si  tau(  33) = (   0.1250000   0.6250000   0.6250000  )
        34           Si  tau(  34) = (   0.6250000   0.6250000   0.6250000  )
        35           Si  tau(  35) = (   0.3750000   0.1250000   0.3750000  )
        36           Si  tau(  36) = (   0.8750000   0.1250000   0.3750000  )
        37           Si  tau(  37) = (   0.3750000   0.6250000   0.3750000  )
        38           Si  tau(  38) = (   0.8750000   0.6250000   0.3750000  )
        39           Si  tau(  39) = (   0.1250000   0.3750000   0.3750000  )
        40           Si  tau(  40) = (   0.6250000   0.3750000   0.3750000  )
        41           Si  tau(  41) = (   0.1250000   0.8750000   0.3750000  )
        42           Si  tau(  42) = (   0.6250000   0.8750000   0.3750000  )

     number of k points=    36
                       cart. coord. in units 2pi/alat
        k(    1) = (   0.0833333   0.0833333   0.0833333), wk =   0.0370370
        k(    2) = (   0.0833333   0.0833333   0.2500000), wk =   0.0370370
        k(    3) = (   0.0833333   0.0833333   0.4166667), wk =   0.0370370
        k(    4) = (   0.0833333   0.2500000   0.2500000), wk =   0.0740741
        k(    5) = (   0.0833333   0.2500000   0.4166667), wk =   0.0740741
        k(    6) = (   0.0833333   0.4166667   0.4166667), wk =   0.0740741
        k(    7) = (   0.2500000   0.2500000   0.2500000), wk =   0.0370370
        k(    8) = (   0.2500000   0.2500000   0.4166667), wk =   0.0370370
        k(    9) = (   0.2500000   0.4166667   0.4166667), wk =   0.0740741
        k(   10) = (   0.4166667   0.4166667   0.4166667), wk =   0.0370370
        k(   11) = (   0.0833333  -0.0833333   0.0833333), wk =   0.0370370
        k(   12) = (   0.0833333  -0.0833333   0.2500000), wk =   0.0370370
        k(   13) = (   0.2500000  -0.0833333   0.0833333), wk =   0.0740741
        k(   14) = (  -0.2500000  -0.0833333  -0.0833333), wk =   0.0740741
        k(   15) = (   0.0833333  -0.0833333   0.4166667), wk =   0.0370370
        k(   16) = (   0.4166667  -0.0833333   0.0833333), wk =   0.0740741
        k(   17) = (  -0.4166667  -0.0833333  -0.0833333), wk =   0.0740741
        k(   18) = (   0.2500000  -0.0833333   0.2500000), wk =   0.0740741
        k(   19) = (   0.2500000  -0.2500000   0.0833333), wk =   0.0370370
        k(   20) = (  -0.2500000  -0.2500000  -0.0833333), wk =   0.0370370
        k(   21) = (   0.2500000  -0.0833333   0.4166667), wk =   0.0740741
        k(   22) = (   0.4166667  -0.2500000   0.0833333), wk =   0.0740741
        k(   23) = (  -0.4166667  -0.2500000  -0.0833333), wk =   0.0740741
        k(   24) = (  -0.0833333   0.4166667   0.2500000), wk =   0.0740741
        k(   25) = (  -0.0833333  -0.4166667  -0.2500000), wk =   0.0740741
        k(   26) = (   0.4166667  -0.0833333   0.4166667), wk =   0.0740741
        k(   27) = (   0.4166667  -0.4166667   0.0833333), wk =   0.0370370
        k(   28) = (  -0.4166667  -0.4166667  -0.0833333), wk =   0.0370370
        k(   29) = (   0.2500000  -0.2500000   0.2500000), wk =   0.0370370
        k(   30) = (   0.2500000  -0.2500000   0.4166667), wk =   0.0370370
        k(   31) = (   0.4166667  -0.2500000   0.2500000), wk =   0.0740741
        k(   32) = (  -0.4166667  -0.2500000  -0.2500000), wk =   0.0740741
        k(   33) = (   0.4166667  -0.2500000   0.4166667), wk =   0.0740741
        k(   34) = (   0.4166667  -0.4166667   0.2500000), wk =   0.0370370
        k(   35) = (  -0.4166667  -0.4166667  -0.2500000), wk =   0.0370370
        k(   36) = (   0.4166667  -0.4166667   0.4166667), wk =   0.0370370

     Dense  grid:   301459 G-vectors     FFT dimensions: (  90,  90,  90)

     Estimated max dynamical RAM per process >      65.26 MB

     Estimated total dynamical RAM >       2.29 GB

     Initial potential from superposition of free atoms

     starting charge  167.97676, renormalised to  168.00000
     Starting wfcs are  168 randomized atomic wfcs

     total cpu time spent up to now is       60.2 secs

     Self-consistent Calculation

     iteration #  1     ecut=    40.00 Ry     beta= 0.70
     Davidson diagonalization with overlap
     ethr =  1.00E-02,  avg # of iterations =  2.0

     Threshold (ethr) on eigenvalues was too large:
     Diagonalizing with lowered threshold

     Davidson diagonalization with overlap
     ethr =  8.63E-04,  avg # of iterations =  3.1

     total cpu time spent up to now is      446.4 secs

     total energy              =    -326.26646686 Ry
     estimated scf accuracy    <       1.79577541 Ry

     iteration #  2     ecut=    40.00 Ry     beta= 0.70
     Davidson diagonalization with overlap
     ethr =  1.07E-03,  avg # of iterations = 13.0

     total cpu time spent up to now is     1215.6 secs

     total energy              =    -323.50828700 Ry
     estimated scf accuracy    <      32.95566934 Ry

     iteration #  3     ecut=    40.00 Ry     beta= 0.70
     Davidson diagonalization with overlap
     ethr =  1.07E-03,  avg # of iterations = 10.9

     total cpu time spent up to now is     1869.1 secs

     total energy              =    -326.74856512 Ry
     estimated scf accuracy    <       1.32877633 Ry

     iteration #  4     ecut=    40.00 Ry     beta= 0.70
     Davidson diagonalization with overlap
     ethr =  7.91E-04,  avg # of iterations =  8.2

     total cpu time spent up to now is     2367.0 secs

     total energy              =    -326.85616612 Ry
     estimated scf accuracy    <       2.08469150 Ry

     iteration #  5     ecut=    40.00 Ry     beta= 0.70
     Davidson diagonalization with overlap
     ethr =  7.91E-04,  avg # of iterations =  4.8

     total cpu time spent up to now is     2685.9 secs

     total energy              =    -326.94489475 Ry
     estimated scf accuracy    <       0.33839898 Ry

     iteration #  6     ecut=    40.00 Ry     beta= 0.70
     Davidson diagonalization with overlap
     ethr =  2.01E-04,  avg # of iterations =  6.7

     total cpu time spent up to now is     3101.3 secs

     total energy              =    -327.02987117 Ry
     estimated scf accuracy    <       0.08580607 Ry

     iteration #  7     ecut=    40.00 Ry     beta= 0.70
     Davidson diagonalization with overlap
     c_bands:  1 eigenvalues not converged
     c_bands:  1 eigenvalues not converged
     ethr =  5.11E-05,  avg # of iterations =  9.2

     total cpu time spent up to now is     3644.4 secs

     total energy              =    -327.02791555 Ry
     estimated scf accuracy    <       0.08701219 Ry

     iteration #  8     ecut=    40.00 Ry     beta= 0.70
     Davidson diagonalization with overlap
     c_bands:  1 eigenvalues not converged
     ethr =  5.11E-05,  avg # of iterations =  3.4

     total cpu time spent up to now is     3888.1 secs

     total energy              =    -327.02833304 Ry
     estimated scf accuracy    <       0.02653131 Ry

     iteration #  9     ecut=    40.00 Ry     beta= 0.70
     Davidson diagonalization with overlap
     c_bands:  2 eigenvalues not converged
     c_bands:  1 eigenvalues not converged
     c_bands:  1 eigenvalues not converged
     c_bands:  1 eigenvalues not converged
     c_bands:  1 eigenvalues not converged
     ethr =  1.58E-05,  avg # of iterations = 13.2

     total cpu time spent up to now is     4651.7 secs

     total energy              =    -327.03700391 Ry
     estimated scf accuracy    <       0.01394298 Ry

     iteration # 10     ecut=    40.00 Ry     beta= 0.70
     Davidson diagonalization with overlap
     c_bands:  1 eigenvalues not converged
     c_bands:  1 eigenvalues not converged
     c_bands:  1 eigenvalues not converged
     ethr =  8.30E-06,  avg # of iterations =  3.8

     total cpu time spent up to now is     4914.9 secs

     total energy              =    -327.03564793 Ry
     estimated scf accuracy    <       0.01470355 Ry

     iteration # 11     ecut=    40.00 Ry     beta= 0.70
     Davidson diagonalization with overlap
     c_bands:  1 eigenvalues not converged
     ethr =  8.30E-06,  avg # of iterations =  5.8

     total cpu time spent up to now is     5271.9 secs

     total energy              =    -327.03570174 Ry
     estimated scf accuracy    <       0.00556593 Ry

     iteration # 12     ecut=    40.00 Ry     beta= 0.70
     Davidson diagonalization with overlap
     c_bands:  1 eigenvalues not converged
     c_bands:  1 eigenvalues not converged
     ethr =  3.31E-06,  avg # of iterations = 10.8

     total cpu time spent up to now is     5900.7 secs

     total energy              =    -327.03649407 Ry
     estimated scf accuracy    <       0.00040055 Ry

     iteration # 13     ecut=    40.00 Ry     beta= 0.70
     Davidson diagonalization with overlap
     c_bands:  1 eigenvalues not converged
     c_bands:  1 eigenvalues not converged
     c_bands:  3 eigenvalues not converged
     c_bands:  1 eigenvalues not converged
     c_bands:  2 eigenvalues not converged
     c_bands:  3 eigenvalues not converged
     c_bands:  1 eigenvalues not converged
     c_bands:  2 eigenvalues not converged
     c_bands:  1 eigenvalues not converged
     c_bands:  1 eigenvalues not converged
     c_bands:  1 eigenvalues not converged
     c_bands:  2 eigenvalues not converged
     c_bands:  1 eigenvalues not converged
     c_bands:  1 eigenvalues not converged
     c_bands:  2 eigenvalues not converged
     c_bands:  1 eigenvalues not converged
     c_bands:  1 eigenvalues not converged
     c_bands:  1 eigenvalues not converged
     c_bands:  1 eigenvalues not converged
     ethr =  2.38E-07,  avg # of iterations = 17.6

     total cpu time spent up to now is     6902.0 secs

     total energy              =    -327.03696954 Ry
     estimated scf accuracy    <       0.00284957 Ry

     iteration # 14     ecut=    40.00 Ry     beta= 0.70
     Davidson diagonalization with overlap
     c_bands:  1 eigenvalues not converged
     c_bands:  2 eigenvalues not converged
     c_bands:  1 eigenvalues not converged
     c_bands:  1 eigenvalues not converged
     ethr =  2.38E-07,  avg # of iterations =  6.7

     total cpu time spent up to now is     7314.5 secs

     total energy              =    -327.03676373 Ry
     estimated scf accuracy    <       0.00245696 Ry

     iteration # 15     ecut=    40.00 Ry     beta= 0.70
     Davidson diagonalization with overlap
     c_bands:  1 eigenvalues not converged
     c_bands:  1 eigenvalues not converged
     c_bands:  1 eigenvalues not converged
     c_bands:  1 eigenvalues not converged
     c_bands:  1 eigenvalues not converged
     c_bands:  1 eigenvalues not converged
     ethr =  2.38E-07,  avg # of iterations = 12.2

     total cpu time spent up to now is     8027.8 secs

     total energy              =    -327.03683913 Ry
     estimated scf accuracy    <       0.00061805 Ry

     iteration # 16     ecut=    40.00 Ry     beta= 0.70
     Davidson diagonalization with overlap
     c_bands:  1 eigenvalues not converged
     ethr =  2.38E-07,  avg # of iterations =  2.9

     total cpu time spent up to now is     8242.1 secs

     total energy              =    -327.03681581 Ry
     estimated scf accuracy    <       0.00030715 Ry

     iteration # 17     ecut=    40.00 Ry     beta= 0.70
     Davidson diagonalization with overlap
     c_bands:  1 eigenvalues not converged
     c_bands:  1 eigenvalues not converged
     c_bands:  1 eigenvalues not converged
     ethr =  1.83E-07,  avg # of iterations =  9.3

     total cpu time spent up to now is     8799.5 secs

     total energy              =    -327.03685775 Ry
     estimated scf accuracy    <       0.00002247 Ry

     iteration # 18     ecut=    40.00 Ry     beta= 0.70
     Davidson diagonalization with overlap
     c_bands:  1 eigenvalues not converged
     c_bands:  1 eigenvalues not converged
     c_bands:  1 eigenvalues not converged
     c_bands:  1 eigenvalues not converged
     c_bands:  1 eigenvalues not converged
     c_bands:  2 eigenvalues not converged
     c_bands:  1 eigenvalues not converged
     c_bands:  1 eigenvalues not converged
     c_bands:  1 eigenvalues not converged
     c_bands:  1 eigenvalues not converged
     c_bands:  1 eigenvalues not converged
     c_bands:  2 eigenvalues not converged
     c_bands:  1 eigenvalues not converged
     c_bands:  1 eigenvalues not converged
     c_bands:  3 eigenvalues not converged
     c_bands:  2 eigenvalues not converged
     c_bands:  2 eigenvalues not converged
     c_bands:  2 eigenvalues not converged
     c_bands:  2 eigenvalues not converged
     c_bands:  1 eigenvalues not converged
     ethr =  1.34E-08,  avg # of iterations = 18.1

     total cpu time spent up to now is     9834.7 secs

     total energy              =    -327.03687325 Ry
     estimated scf accuracy    <       0.00021783 Ry

     iteration # 19     ecut=    40.00 Ry     beta= 0.70
     Davidson diagonalization with overlap
     c_bands:  1 eigenvalues not converged
     c_bands:  1 eigenvalues not converged
     c_bands:  1 eigenvalues not converged
     c_bands:  1 eigenvalues not converged
     c_bands:  1 eigenvalues not converged
     ethr =  1.34E-08,  avg # of iterations = 10.2

     total cpu time spent up to now is    10442.7 secs

     total energy              =    -327.03687320 Ry
     estimated scf accuracy    <       0.00007864 Ry

     iteration # 20     ecut=    40.00 Ry     beta= 0.70
     Davidson diagonalization with overlap
     c_bands:  1 eigenvalues not converged
     c_bands:  1 eigenvalues not converged
     ethr =  1.34E-08,  avg # of iterations =  7.8

     total cpu time spent up to now is    10916.6 secs

     total energy              =    -327.03688124 Ry
     estimated scf accuracy    <       0.00000345 Ry

     iteration # 21     ecut=    40.00 Ry     beta= 0.70
     Davidson diagonalization with overlap
     c_bands:  1 eigenvalues not converged
     c_bands:  1 eigenvalues not converged
     c_bands:  1 eigenvalues not converged
     c_bands:  1 eigenvalues not converged
     c_bands:  1 eigenvalues not converged
     c_bands:  2 eigenvalues not converged
     c_bands:  1 eigenvalues not converged
     c_bands:  1 eigenvalues not converged
     c_bands:  1 eigenvalues not converged
     c_bands:  1 eigenvalues not converged
     c_bands:  1 eigenvalues not converged
     c_bands:  1 eigenvalues not converged
     c_bands:  1 eigenvalues not converged
     c_bands:  1 eigenvalues not converged
     ethr =  2.05E-09,  avg # of iterations = 17.2

     total cpu time spent up to now is    11899.0 secs

     total energy              =    -327.03689370 Ry
     estimated scf accuracy    <       0.00001182 Ry

     iteration # 22     ecut=    40.00 Ry     beta= 0.70
     Davidson diagonalization with overlap
     c_bands:  1 eigenvalues not converged
     c_bands:  1 eigenvalues not converged
     c_bands:  1 eigenvalues not converged
     ethr =  2.05E-09,  avg # of iterations =  3.6

     total cpu time spent up to now is    12147.1 secs

     total energy              =    -327.03689456 Ry
     estimated scf accuracy    <       0.00001199 Ry

     iteration # 23     ecut=    40.00 Ry     beta= 0.70
     Davidson diagonalization with overlap
     c_bands:  1 eigenvalues not converged
     c_bands:  1 eigenvalues not converged
     ethr =  2.05E-09,  avg # of iterations =  3.1

     total cpu time spent up to now is    12367.1 secs

     total energy              =    -327.03689488 Ry
     estimated scf accuracy    <       0.00001091 Ry

     iteration # 24     ecut=    40.00 Ry     beta= 0.70
     Davidson diagonalization with overlap
     c_bands:  1 eigenvalues not converged
     c_bands:  1 eigenvalues not converged
     c_bands:  1 eigenvalues not converged
     ethr =  2.05E-09,  avg # of iterations =  6.8

     total cpu time spent up to now is    12785.1 secs

     total energy              =    -327.03689446 Ry
     estimated scf accuracy    <       0.00001210 Ry

     iteration # 25     ecut=    40.00 Ry     beta= 0.70
     Davidson diagonalization with overlap
     c_bands:  1 eigenvalues not converged
     c_bands:  1 eigenvalues not converged
     c_bands:  1 eigenvalues not converged
     ethr =  2.05E-09,  avg # of iterations =  4.8

     total cpu time spent up to now is    13096.4 secs

     total energy              =    -327.03689546 Ry
     estimated scf accuracy    <       0.00000825 Ry

     iteration # 26     ecut=    40.00 Ry     beta= 0.70
     Davidson diagonalization with overlap
     c_bands:  1 eigenvalues not converged
     c_bands:  1 eigenvalues not converged
     c_bands:  1 eigenvalues not converged
     ethr =  2.05E-09,  avg # of iterations =  2.8

     total cpu time spent up to now is    13302.7 secs

     total energy              =    -327.03689340 Ry
     estimated scf accuracy    <       0.00001038 Ry

     iteration # 27     ecut=    40.00 Ry     beta= 0.70
     Davidson diagonalization with overlap
     c_bands:  1 eigenvalues not converged
     c_bands:  1 eigenvalues not converged
     c_bands:  1 eigenvalues not converged
     c_bands:  1 eigenvalues not converged
     c_bands:  1 eigenvalues not converged
     c_bands:  1 eigenvalues not converged
     c_bands:  1 eigenvalues not converged
     c_bands:  1 eigenvalues not converged
     ethr =  2.05E-09,  avg # of iterations = 12.2

     total cpu time spent up to now is    14012.7 secs

     total energy              =    -327.03689457 Ry
     estimated scf accuracy    <       0.00000244 Ry

     iteration # 28     ecut=    40.00 Ry     beta= 0.70
     Davidson diagonalization with overlap
     c_bands:  1 eigenvalues not converged
     c_bands:  1 eigenvalues not converged
     c_bands:  1 eigenvalues not converged
     ethr =  1.45E-09,  avg # of iterations =  8.6

     total cpu time spent up to now is    14535.9 secs

     total energy              =    -327.03689465 Ry
     estimated scf accuracy    <       0.00000160 Ry

     iteration # 29     ecut=    40.00 Ry     beta= 0.70
     Davidson diagonalization with overlap
     c_bands:  1 eigenvalues not converged
     c_bands:  1 eigenvalues not converged
     c_bands:  1 eigenvalues not converged
     c_bands:  1 eigenvalues not converged
     c_bands:  1 eigenvalues not converged
     c_bands:  1 eigenvalues not converged
     c_bands:  1 eigenvalues not converged
     ethr =  9.53E-10,  avg # of iterations = 11.2

     total cpu time spent up to now is    15186.5 secs

     total energy              =    -327.03689496 Ry
     estimated scf accuracy    <       0.00000133 Ry

     iteration # 30     ecut=    40.00 Ry     beta= 0.70
     Davidson diagonalization with overlap
     c_bands:  1 eigenvalues not converged
     c_bands:  1 eigenvalues not converged
     c_bands:  1 eigenvalues not converged
     ethr =  7.92E-10,  avg # of iterations =  4.1

     total cpu time spent up to now is    15456.4 secs

     total energy              =    -327.03689509 Ry
     estimated scf accuracy    <       0.00000177 Ry

     iteration # 31     ecut=    40.00 Ry     beta= 0.70
     Davidson diagonalization with overlap
     c_bands:  1 eigenvalues not converged
     c_bands:  1 eigenvalues not converged
     c_bands:  1 eigenvalues not converged
     c_bands:  1 eigenvalues not converged
     c_bands:  1 eigenvalues not converged
     c_bands:  1 eigenvalues not converged
     c_bands:  1 eigenvalues not converged
     c_bands:  1 eigenvalues not converged
     ethr =  7.92E-10,  avg # of iterations = 14.1

     total cpu time spent up to now is    16258.2 secs

     total energy              =    -327.03689495 Ry
     estimated scf accuracy    <       0.00000881 Ry

     iteration # 32     ecut=    40.00 Ry     beta= 0.70
     Davidson diagonalization with overlap
     c_bands:  1 eigenvalues not converged
     c_bands:  1 eigenvalues not converged
     c_bands:  1 eigenvalues not converged
     ethr =  7.92E-10,  avg # of iterations =  6.9

     total cpu time spent up to now is    16674.3 secs

     total energy              =    -327.03689435 Ry
     estimated scf accuracy    <       0.00000525 Ry

     iteration # 33     ecut=    40.00 Ry     beta= 0.70
     Davidson diagonalization with overlap
     c_bands:  1 eigenvalues not converged
     c_bands:  1 eigenvalues not converged
     c_bands:  1 eigenvalues not converged
     c_bands:  1 eigenvalues not converged
     ethr =  7.92E-10,  avg # of iterations = 11.8

     total cpu time spent up to now is    17356.5 secs

     End of self-consistent calculation

          k = 0.0833 0.0833 0.0833 ( 37734 PWs)   bands (ev):

    -8.6100  -7.7500  -7.7403  -7.7353  -7.1254  -7.0665  -6.9100  -6.7429
    -6.6831  -6.6106  -6.2981  -6.2821  -6.0251  -5.8338  -5.7947  -5.5684
    -5.4852  -5.2354  -4.7907  -4.6596  -4.5955  -4.5504  -4.4910  -4.4528
    -4.2867  -3.7835  -3.6870  -3.5442  -3.4442  -3.3000  -3.1992  -3.0893
    -3.0472  -2.9328  -2.7875  -2.2871  -2.1583  -2.0488  -1.5121  -1.4153
    -1.1916  -0.9010  -0.8332  -0.7738  -0.7508  -0.7328  -0.6016  -0.5679
    -0.4920  -0.4061  -0.2041  -0.0455   0.0129   0.0876   0.0927   0.2638
     0.3094   0.4134   0.5772   0.7006   0.7405   0.8269   0.8997   0.9248
     0.9613   0.9697   1.0956   1.1561   1.2366   1.2835   1.3997   1.5134
     1.5206   1.5793   1.6167   1.7396   1.8016   1.8372   1.9342   2.0641
     2.1133   2.1671   2.2500   2.2781

          k = 0.0833 0.0833 0.2500 ( 37698 PWs)   bands (ev):

    -8.6009  -7.7808  -7.7448  -7.7251  -7.1553  -7.0608  -6.9322  -6.7396
    -6.6806  -6.5473  -6.2814  -6.2556  -5.9953  -5.8430  -5.7943  -5.5787
    -5.4856  -5.3010  -4.7962  -4.6527  -4.5849  -4.5450  -4.4876  -4.4530
    -4.3315  -3.8188  -3.6571  -3.5450  -3.4603  -3.3499  -3.2160  -3.0772
    -3.0380  -2.8817  -2.6645  -2.3189  -2.1579  -2.0318  -1.5202  -1.4751
    -1.2244  -0.8991  -0.8413  -0.7570  -0.7569  -0.7113  -0.6147  -0.5466
    -0.5238  -0.3609  -0.2085  -0.0150  -0.0037   0.0507   0.0767   0.2331
     0.3100   0.3731   0.5227   0.6770   0.6834   0.7286   0.8724   0.9290
     0.9293   0.9932   1.1915   1.2764   1.2848   1.4063   1.4081   1.5453
     1.5474   1.6614   1.6854   1.8191   1.8330   1.8891   1.9790   2.0382
     2.1496   2.1677   2.1770   2.3576

          k = 0.0833 0.0833 0.4167 ( 37716 PWs)   bands (ev):

    -8.5913  -7.8188  -7.7396  -7.7140  -7.1850  -7.0557  -6.9535  -6.7363
    -6.6782  -6.4925  -6.2516  -6.2257  -5.9662  -5.8520  -5.7943  -5.5926
    -5.4861  -5.3762  -4.8017  -4.6461  -4.5736  -4.5417  -4.4806  -4.4577
    -4.3607  -3.8533  -3.6355  -3.5469  -3.4825  -3.3853  -3.2307  -3.0674
    -3.0195  -2.8382  -2.5371  -2.3518  -2.1572  -2.0164  -1.6349  -1.4305
    -1.2491  -0.9161  -0.8474  -0.7621  -0.7320  -0.6783  -0.6404  -0.5568
    -0.5278  -0.3350  -0.2123  -0.0313  -0.0131   0.0669   0.0890   0.1909
     0.3092   0.3264   0.4596   0.6178   0.6379   0.7007   0.8567   0.9364
     0.9409   1.0290   1.2464   1.2885   1.4100   1.4541   1.5036   1.5507
     1.6019   1.6633   1.7021   1.8560   1.9445   1.9572   2.0158   2.0804
     2.1547   2.1751   2.2724   2.2745

          k = 0.0833 0.2500 0.2500 ( 37707 PWs)   bands (ev):

    -8.5905  -7.7830  -7.7718  -7.7236  -7.1726  -7.0959  -6.9445  -6.6954
    -6.6207  -6.5476  -6.2813  -6.2501  -6.0003  -5.8127  -5.7956  -5.5372
    -5.4816  -5.2674  -4.8580  -4.7347  -4.6466  -4.5730  -4.5292  -4.4783
    -4.3047  -3.8221  -3.6054  -3.5835  -3.4202  -3.2787  -3.1121  -3.0863
    -2.9851  -2.8639  -2.6274  -2.3559  -2.2482  -2.0903  -1.5817  -1.4669
    -1.2894  -0.9105  -0.8499  -0.8062  -0.7609  -0.6569  -0.6384  -0.5521
    -0.4578  -0.2952  -0.2360  -0.0121  -0.0073   0.0528   0.1434   0.1916
     0.2868   0.4142   0.5421   0.6547   0.7289   0.7837   0.8414   0.9388
     0.9725   1.0376   1.1989   1.2472   1.2948   1.3691   1.4370   1.5537
     1.5956   1.6595   1.7274   1.8400   1.8650   1.9201   1.9761   2.0274
     2.1389   2.1781   2.2548   2.2839

          k = 0.0833 0.2500 0.4167 ( 37688 PWs)   bands (ev):

    -8.5808  -7.8100  -7.7759  -7.7145  -7.2011  -7.0924  -6.9662  -6.6919
    -6.6187  -6.4940  -6.2486  -6.2208  -5.9706  -5.8199  -5.7936  -5.5465
    -5.4899  -5.3496  -4.8591  -4.7326  -4.6469  -4.5712  -4.5181  -4.4739
    -4.3306  -3.8562  -3.5860  -3.5797  -3.4519  -3.2910  -3.1015  -3.0921
    -2.9722  -2.8245  -2.5115  -2.3907  -2.2643  -2.0818  -1.6265  -1.4971
    -1.3086  -0.9226  -0.8647  -0.8006  -0.7536  -0.6618  -0.5935  -0.5210
    -0.4986  -0.2697  -0.2429  -0.0437   0.0010   0.0987   0.1237   0.2048
     0.2732   0.3905   0.5124   0.6447   0.6737   0.8003   0.8517   0.8832
     0.9745   1.0577   1.2296   1.2693   1.3394   1.3943   1.4524   1.5433
     1.6594   1.6717   1.7418   1.8296   1.9083   1.9901   2.0279   2.0690
     2.1385   2.1917   2.2046   2.3160

          k = 0.0833 0.4167 0.4167 ( 37690 PWs)   bands (ev):

    -8.5698  -7.8182  -7.8007  -7.7050  -7.2174  -7.1291  -6.9748  -6.6666
    -6.5464  -6.4905  -6.2421  -6.2214  -5.9874  -5.7854  -5.7692  -5.5069
    -5.4925  -5.3293  -4.9714  -4.7696  -4.7051  -4.6215  -4.5345  -4.4500
    -4.3134  -3.8897  -3.6031  -3.5323  -3.4259  -3.2498  -3.1289  -2.9581
    -2.8730  -2.8022  -2.5097  -2.4041  -2.3674  -2.1415  -1.6984  -1.5447
    -1.3147  -0.9641  -0.8748  -0.8227  -0.7615  -0.6985  -0.5479  -0.4781
    -0.4174  -0.3031  -0.1626  -0.0984   0.0044   0.0591   0.1434   0.2718
     0.3713   0.3996   0.5157   0.6592   0.7171   0.8097   0.8366   0.9390
     1.0530   1.1099   1.1661   1.2594   1.3066   1.3717   1.4374   1.5140
     1.5706   1.6121   1.7566   1.8162   1.8911   1.9503   2.0621   2.1141
     2.1436   2.1955   2.2345   2.3249

          k = 0.2500 0.2500 0.2500 ( 37740 PWs)   bands (ev):

    -8.5803  -7.7787  -7.7635  -7.7620  -7.1906  -7.1284  -6.9588  -6.6247
    -6.5879  -6.5502  -6.2870  -6.2405  -5.9889  -5.7960  -5.7804  -5.4968
    -5.4834  -5.2422  -4.8788  -4.8117  -4.7043  -4.6200  -4.5886  -4.5162
    -4.2964  -3.7686  -3.5747  -3.5664  -3.4239  -3.1423  -3.1378  -3.0298
    -2.9819  -2.8441  -2.6047  -2.4065  -2.2988  -2.1537  -1.5754  -1.5062
    -1.3576  -0.9087  -0.8795  -0.7863  -0.7612  -0.6513  -0.6199  -0.5560
    -0.3794  -0.2831  -0.1839  -0.0596  -0.0025   0.0633   0.2002   0.2066
     0.2951   0.3830   0.5421   0.6840   0.6873   0.7851   0.8076   0.9412
     1.0341   1.0519   1.1801   1.2198   1.3052   1.3694   1.4643   1.5998
     1.6180   1.7063   1.7349   1.7745   1.8662   1.9251   1.9568   2.0377
     2.0700   2.1673   2.1847   2.2789

          k = 0.2500 0.2500 0.4167 ( 37719 PWs)   bands (ev):

    -8.5706  -7.8013  -7.7734  -7.7517  -7.2152  -7.1293  -6.9808  -6.6213
    -6.5857  -6.4987  -6.2511  -6.2100  -5.9527  -5.7981  -5.7883  -5.5070
    -5.4930  -5.3292  -4.8800  -4.8051  -4.7118  -4.6153  -4.5814  -4.5123
    -4.3183  -3.8010  -3.5669  -3.5529  -3.4451  -3.1447  -3.1238  -3.0451
    -2.9629  -2.8053  -2.5235  -2.4060  -2.3447  -2.1489  -1.5845  -1.5342
    -1.4147  -0.9183  -0.8690  -0.7889  -0.7761  -0.6389  -0.5718  -0.5141
    -0.4318  -0.3131  -0.1488  -0.1135   0.0344   0.1016   0.2005   0.2423
     0.2994   0.3872   0.5373   0.6751   0.7274   0.7835   0.8213   0.8831
     0.9713   1.0597   1.1923   1.2448   1.3298   1.3432   1.4676   1.5832
     1.6375   1.7036   1.7179   1.8364   1.8538   1.9534   1.9933   2.0279
     2.0556   2.1452   2.2253   2.3229

          k = 0.2500 0.4167 0.4167 ( 37725 PWs)   bands (ev):

    -8.5598  -7.8074  -7.7924  -7.7483  -7.2274  -7.1694  -6.9913  -6.5854
    -6.5240  -6.4977  -6.2483  -6.2035  -5.9575  -5.7753  -5.7444  -5.5051
    -5.4807  -5.3156  -4.9652  -4.8425  -4.7672  -4.6522  -4.5784  -4.5246
    -4.3280  -3.7932  -3.5929  -3.5321  -3.3912  -3.1606  -3.0835  -2.9494
    -2.8898  -2.7798  -2.5813  -2.4603  -2.3177  -2.2055  -1.6611  -1.5434
    -1.4459  -0.9578  -0.8512  -0.8235  -0.7624  -0.6509  -0.5118  -0.4932
    -0.3778  -0.3206  -0.1444  -0.0814   0.0251   0.1157   0.1950   0.2923
     0.3753   0.3970   0.5460   0.6583   0.7331   0.7788   0.8377   0.9310
     1.0083   1.0542   1.1509   1.2270   1.2815   1.3055   1.5045   1.5143
     1.5594   1.6088   1.7602   1.7894   1.8305   1.9336   2.0031   2.0456
     2.0979   2.1773   2.2325   2.2843

          k = 0.4167 0.4167 0.4167 ( 37728 PWs)   bands (ev):

    -8.5492  -7.8040  -7.7838  -7.7802  -7.2371  -7.2101  -7.0045  -6.5174
    -6.5020  -6.4917  -6.2497  -6.1910  -5.9446  -5.7470  -5.7063  -5.5116
    -5.4757  -5.3040  -4.9657  -4.9420  -4.8206  -4.6871  -4.6087  -4.5305
    -4.3552  -3.7326  -3.5694  -3.5681  -3.3114  -3.2029  -2.9802  -2.9294
    -2.8665  -2.7611  -2.6228  -2.5206  -2.2687  -2.2628  -1.6549  -1.5791
    -1.5257  -0.9760  -0.8562  -0.7879  -0.7331  -0.6220  -0.5028  -0.4623
    -0.3791  -0.2757  -0.1650  -0.0600  -0.0099   0.1668   0.2165   0.2727
     0.3728   0.5203   0.6284   0.6320   0.7074   0.8153   0.8442   0.8856
     0.9971   1.0817   1.1330   1.1649   1.2472   1.3520   1.3547   1.3799
     1.4767   1.6439   1.7187   1.7896   1.8506   1.8941   1.9716   2.0767
     2.0890   2.1518   2.1826   2.2770

          k = 0.0833-0.0833 0.0833 ( 37734 PWs)   bands (ev):

    -8.6100  -7.7509  -7.7403  -7.7344  -7.1221  -7.0701  -6.9114  -6.7402
    -6.6837  -6.6111  -6.2890  -6.2888  -6.0293  -5.8327  -5.7842  -5.5861
    -5.4845  -5.2367  -4.7840  -4.6557  -4.6231  -4.5097  -4.4873  -4.4366
    -4.2999  -3.8115  -3.7024  -3.5867  -3.3786  -3.3014  -3.1989  -3.0922
    -3.0474  -2.9227  -2.8073  -2.2882  -2.1355  -2.0415  -1.5246  -1.4118
    -1.1977  -0.8814  -0.8350  -0.7804  -0.7471  -0.7446  -0.5672  -0.5477
    -0.5459  -0.4196  -0.1963  -0.0373   0.0071   0.0894   0.1050   0.1857
     0.3052   0.4572   0.5923   0.6848   0.8173   0.8576   0.8840   0.9184
     0.9587   0.9978   1.0507   1.1154   1.1898   1.2713   1.4097   1.4779
     1.5566   1.5956   1.6202   1.7491   1.7637   1.8713   1.9551   2.0792
     2.0814   2.1506   2.2287   2.2802

          k = 0.0833-0.0833 0.2500 ( 37698 PWs)   bands (ev):

    -8.6009  -7.7808  -7.7457  -7.7241  -7.1531  -7.0637  -6.9328  -6.7374
    -6.6811  -6.5478  -6.2780  -6.2564  -6.0005  -5.8419  -5.7840  -5.5922
    -5.4879  -5.3022  -4.7897  -4.6532  -4.6105  -4.4962  -4.4882  -4.4313
    -4.3516  -3.8451  -3.6744  -3.5882  -3.3842  -3.3655  -3.2160  -3.0765
    -3.0363  -2.8761  -2.6822  -2.3238  -2.1268  -2.0266  -1.5374  -1.4686
    -1.2215  -0.9018  -0.8372  -0.7876  -0.7264  -0.7146  -0.6056  -0.5564
    -0.5215  -0.3779  -0.2038  -0.0058   0.0019   0.0535   0.0741   0.2060
     0.2729   0.3949   0.5192   0.6583   0.7294   0.7699   0.8455   0.9384
     0.9627   1.0341   1.1365   1.2419   1.2547   1.3037   1.4758   1.4978
     1.6329   1.6356   1.7459   1.7753   1.8234   1.9187   1.9656   2.0421
     2.1462   2.1828   2.2201   2.2936

          k = 0.2500-0.0833 0.0833 ( 37698 PWs)   bands (ev):

    -8.5997  -7.7903  -7.7318  -7.7310  -7.1367  -7.1078  -6.9232  -6.6963
    -6.6228  -6.6113  -6.2902  -6.2820  -6.0385  -5.7994  -5.7827  -5.5669
    -5.4705  -5.1980  -4.8498  -4.7332  -4.6601  -4.5384  -4.5096  -4.4707
    -4.2832  -3.8470  -3.6748  -3.5995  -3.3202  -3.2626  -3.1273  -3.0660
    -3.0026  -2.8887  -2.7819  -2.3143  -2.1926  -2.0822  -1.6062  -1.3922
    -1.2709  -0.8916  -0.8408  -0.8019  -0.7548  -0.7140  -0.6191  -0.5778
    -0.4550  -0.3913  -0.1815  -0.0029   0.0322   0.0491   0.0776   0.1721
     0.3005   0.4552   0.5765   0.6176   0.7858   0.8780   0.9235   0.9607
     0.9852   1.0313   1.0915   1.1324   1.2431   1.3337   1.4469   1.5252
     1.5815   1.6298   1.7055   1.7118   1.8093   1.8926   1.9664   2.0748
     2.1047   2.1860   2.2729   2.3478

          k =-0.2500-0.0833-0.0833 ( 37698 PWs)   bands (ev):

    -8.5997  -7.7898  -7.7321  -7.7311  -7.1457  -7.0981  -6.9220  -6.6989
    -6.6233  -6.6102  -6.3006  -6.2758  -6.0311  -5.8075  -5.7951  -5.5302
    -5.4744  -5.1950  -4.8570  -4.7361  -4.6482  -4.5714  -4.5404  -4.4839
    -4.2675  -3.7871  -3.6412  -3.5833  -3.3847  -3.2623  -3.1236  -3.0759
    -2.9949  -2.9077  -2.7340  -2.3318  -2.2246  -2.1003  -1.5930  -1.3968
    -1.2460  -0.9178  -0.8529  -0.7855  -0.7522  -0.6992  -0.6432  -0.5949
    -0.4187  -0.3511  -0.2149  -0.0142   0.0136   0.0485   0.1667   0.1853
     0.2804   0.4286   0.5542   0.6364   0.7600   0.8279   0.8730   0.9405
     1.0080   1.0441   1.1466   1.1907   1.2522   1.3853   1.4468   1.5001
     1.5665   1.6450   1.7217   1.7720   1.8050   1.9021   1.9682   1.9976
     2.0680   2.1631   2.3167   2.3345

          k = 0.0833-0.0833 0.4167 ( 37716 PWs)   bands (ev):

    -8.5913  -7.8189  -7.7405  -7.7131  -7.1834  -7.0586  -6.9534  -6.7344
    -6.6786  -6.4931  -6.2494  -6.2250  -5.9728  -5.8510  -5.7838  -5.6012
    -5.4922  -5.3769  -4.7954  -4.6504  -4.5985  -4.4872  -4.4814  -4.4267
    -4.3922  -3.8783  -3.6538  -3.5906  -3.4207  -3.3891  -3.2314  -3.0648
    -3.0161  -2.8351  -2.5557  -2.3569  -2.1201  -2.0138  -1.6445  -1.4314
    -1.2404  -0.9238  -0.8377  -0.8009  -0.7137  -0.6689  -0.6464  -0.5753
    -0.4978  -0.3555  -0.2138  -0.0140   0.0233   0.0354   0.0997   0.2087
     0.2329   0.3318   0.4550   0.5598   0.6964   0.7345   0.8561   0.9609
     0.9695   1.0692   1.1950   1.2792   1.3281   1.3987   1.4573   1.5522
     1.6624   1.6854   1.7445   1.9006   1.9421   1.9447   1.9763   2.0850
     2.1799   2.1881   2.2610   2.3328

          k = 0.4167-0.0833 0.0833 ( 37716 PWs)   bands (ev):

    -8.5887  -7.8327  -7.7225  -7.7210  -7.1569  -7.1401  -6.9294  -6.6748
    -6.6121  -6.5409  -6.2867  -6.2862  -6.0485  -5.7917  -5.7602  -5.5124
    -5.4610  -5.1589  -4.9806  -4.7593  -4.6895  -4.6104  -4.5492  -4.4664
    -4.2664  -3.8502  -3.6320  -3.5936  -3.3361  -3.2318  -3.1611  -2.9850
    -2.8744  -2.8610  -2.7123  -2.3255  -2.3019  -2.1371  -1.7224  -1.3397
    -1.3153  -0.9320  -0.8734  -0.7827  -0.7759  -0.6901  -0.6551  -0.6062
    -0.3914  -0.3149  -0.1855  -0.0377   0.0179   0.0474   0.1204   0.2125
     0.3130   0.3804   0.4885   0.6466   0.7454   0.8396   0.9010   0.9903
     1.0705   1.1159   1.1709   1.2417   1.3042   1.3648   1.4673   1.5166
     1.5599   1.6486   1.7084   1.7917   1.8769   1.9232   1.9845   2.0623
     2.1279   2.2277   2.2980   2.3694

          k =-0.4167-0.0833-0.0833 ( 37716 PWs)   bands (ev):

    -8.5887  -7.8326  -7.7224  -7.7212  -7.1636  -7.1330  -6.9292  -6.6754
    -6.6118  -6.5414  -6.2957  -6.2792  -6.0452  -5.8013  -5.7590  -5.4873
    -5.4700  -5.1578  -4.9820  -4.7641  -4.6807  -4.6319  -4.5576  -4.4742
    -4.2610  -3.8195  -3.6083  -3.6017  -3.3589  -3.2312  -3.1583  -2.9946
    -2.8821  -2.8550  -2.6789  -2.3763  -2.2849  -2.1490  -1.7194  -1.3492
    -1.2902  -0.9397  -0.8732  -0.8055  -0.7551  -0.6837  -0.6672  -0.6087
    -0.3828  -0.2660  -0.2244  -0.0487   0.0239   0.0589   0.1218   0.2141
     0.3132   0.4081   0.4303   0.6926   0.7541   0.7969   0.8931   0.9707
     1.0732   1.1052   1.1924   1.2419   1.3205   1.3943   1.4317   1.5470
     1.6017   1.6657   1.7461   1.8050   1.8424   1.9230   1.9685   2.0157
     2.0861   2.1961   2.2868   2.3421

          k = 0.2500-0.0833 0.2500 ( 37707 PWs)   bands (ev):

    -8.5905  -7.7835  -7.7719  -7.7230  -7.1673  -7.1026  -6.9447  -6.6931
    -6.6204  -6.5490  -6.2752  -6.2513  -6.0093  -5.8080  -5.7800  -5.5679
    -5.4815  -5.2705  -4.8506  -4.7347  -4.6558  -4.5377  -4.5029  -4.4600
    -4.3231  -3.8780  -3.6509  -3.5938  -3.3666  -3.2762  -3.1093  -3.0799
    -2.9856  -2.8526  -2.6724  -2.3563  -2.1886  -2.0775  -1.5939  -1.4740
    -1.2889  -0.9052  -0.8652  -0.8081  -0.7507  -0.6674  -0.6274  -0.5350
    -0.4819  -0.3256  -0.2078  -0.0057   0.0117   0.0593   0.0725   0.1729
     0.2978   0.4354   0.5492   0.6381   0.7467   0.8085   0.8847   0.9366
     0.9951   1.0564   1.1423   1.1889   1.2714   1.3077   1.4775   1.5203
     1.6054   1.6753   1.7290   1.7714   1.8799   1.9295   2.0212   2.0588
     2.1168   2.2146   2.3040   2.3260

          k = 0.2500-0.2500 0.0833 ( 37707 PWs)   bands (ev):

    -8.5895  -7.7875  -7.7689  -7.7226  -7.1513  -7.1437  -6.9365  -6.6233
    -6.6133  -6.5917  -6.2907  -6.2771  -6.0381  -5.7681  -5.7548  -5.5763
    -5.4600  -5.1708  -4.8567  -4.8303  -4.6994  -4.5598  -4.5485  -4.4953
    -4.2952  -3.8480  -3.6768  -3.5889  -3.2728  -3.1548  -3.1355  -3.0193
    -2.9995  -2.8435  -2.7943  -2.3698  -2.1735  -2.1188  -1.6459  -1.3828
    -1.3761  -0.9071  -0.8522  -0.8014  -0.7585  -0.6862  -0.6126  -0.5588
    -0.4448  -0.3181  -0.1331  -0.0407  -0.0074   0.0626   0.0818   0.1843
     0.3401   0.4160   0.5341   0.5832   0.7356   0.8752   0.9033   0.9494
     1.0188   1.0190   1.1380   1.2078   1.2845   1.3278   1.4726   1.5333
     1.5882   1.6894   1.7038   1.7276   1.7688   1.9044   1.9647   2.0833
     2.1107   2.2891   2.3604   2.3762

          k =-0.2500-0.2500-0.0833 ( 37707 PWs)   bands (ev):

    -8.5895  -7.7839  -7.7725  -7.7223  -7.1729  -7.1206  -6.9358  -6.6283
    -6.6122  -6.5901  -6.3074  -6.2682  -6.0248  -5.7946  -5.7726  -5.4886
    -5.4749  -5.1655  -4.8773  -4.8180  -4.6974  -4.6229  -4.5961  -4.5206
    -4.2646  -3.7345  -3.6115  -3.5678  -3.3963  -3.1481  -3.1359  -3.0182
    -2.9956  -2.8880  -2.6892  -2.3940  -2.2530  -2.1599  -1.6109  -1.4578
    -1.2655  -0.9252  -0.8981  -0.7475  -0.7472  -0.6821  -0.6675  -0.5932
    -0.3250  -0.2713  -0.2251  -0.0109  -0.0100   0.0389   0.1821   0.1831
     0.2838   0.3791   0.5119   0.6751   0.6946   0.7824   0.8282   0.9472
     1.0484   1.1018   1.1633   1.2249   1.3036   1.3753   1.4723   1.5614
     1.6203   1.6879   1.7628   1.7873   1.8437   1.8887   1.8954   1.9954
     2.1174   2.1268   2.2070   2.3440

          k = 0.2500-0.0833 0.4167 ( 37688 PWs)   bands (ev):

    -8.5808  -7.8101  -7.7766  -7.7136  -7.1973  -7.0984  -6.9653  -6.6898
    -6.6184  -6.4953  -6.2446  -6.2193  -5.9816  -5.8165  -5.7769  -5.5684
    -5.4960  -5.3530  -4.8515  -4.7354  -4.6533  -4.5335  -4.4977  -4.4486
    -4.3530  -3.9089  -3.6399  -3.5837  -3.4098  -3.2847  -3.0960  -3.0880
    -2.9663  -2.8193  -2.5575  -2.3993  -2.1857  -2.0748  -1.6408  -1.5016
    -1.2962  -0.9268  -0.8803  -0.8176  -0.7381  -0.6687  -0.5944  -0.5356
    -0.4693  -0.2898  -0.2414   0.0074   0.0223   0.0626   0.0970   0.1581
     0.2931   0.3963   0.5241   0.6001   0.6632   0.8189   0.8876   0.9208
     1.0265   1.0806   1.2053   1.2233   1.2645   1.3499   1.4202   1.5352
     1.6456   1.6839   1.7406   1.8476   1.9198   2.0031   2.0336   2.1089
     2.1605   2.2140   2.2762   2.3128

          k = 0.4167-0.2500 0.0833 ( 37688 PWs)   bands (ev):

    -8.5788  -7.8217  -7.7653  -7.7132  -7.1921  -7.1535  -6.9455  -6.6167
    -6.5902  -6.5199  -6.2973  -6.2736  -6.0373  -5.7577  -5.7265  -5.5298
    -5.4520  -5.1413  -4.9733  -4.8466  -4.7390  -4.6416  -4.5593  -4.5261
    -4.2970  -3.7852  -3.6485  -3.5795  -3.2763  -3.1928  -3.0867  -3.0010
    -2.8788  -2.8306  -2.7469  -2.3928  -2.2314  -2.1795  -1.7209  -1.4496
    -1.3270  -0.9471  -0.8527  -0.7974  -0.7604  -0.6726  -0.6399  -0.5706
    -0.3622  -0.2310  -0.1271  -0.0398  -0.0166   0.0501   0.1242   0.2203
     0.3331   0.3730   0.4597   0.5676   0.6851   0.8135   0.8743   0.9529
     1.0279   1.0603   1.1996   1.2762   1.3509   1.4041   1.4396   1.5099
     1.5986   1.6728   1.7193   1.8049   1.8496   1.9091   1.9569   2.1197
     2.1659   2.2437   2.2909   2.3277

          k =-0.4167-0.2500-0.0833 ( 37688 PWs)   bands (ev):

    -8.5788  -7.8212  -7.7658  -7.7130  -7.1986  -7.1463  -6.9455  -6.6153
    -6.5919  -6.5205  -6.3055  -6.2689  -6.0314  -5.7760  -5.7296  -5.4785
    -5.4647  -5.1400  -4.9763  -4.8465  -4.7444  -4.6618  -4.5889  -4.5374
    -4.2810  -3.7268  -3.6153  -3.5809  -3.3375  -3.1883  -3.0685  -3.0170
    -2.8697  -2.8535  -2.6949  -2.3946  -2.2794  -2.2061  -1.7092  -1.4710
    -1.2800  -0.9437  -0.8812  -0.7895  -0.7470  -0.6768  -0.6536  -0.5822
    -0.3095  -0.2021  -0.1499  -0.0577  -0.0106   0.0549   0.1134   0.2088
     0.3369   0.3835   0.4300   0.6197   0.6799   0.7649   0.8291   0.9983
     1.0448   1.0820   1.2239   1.2256   1.3436   1.3833   1.4833   1.5918
     1.6070   1.6723   1.7595   1.8252   1.8591   1.9258   1.9524   2.0459
     2.1140   2.1314   2.1823   2.3810

          k =-0.0833 0.4167 0.2500 ( 37688 PWs)   bands (ev):

    -8.5795  -7.8257  -7.7625  -7.7136  -7.1859  -7.1362  -6.9523  -6.6703
    -6.5582  -6.5321  -6.2725  -6.2531  -6.0193  -5.7822  -5.7681  -5.5183
    -5.4734  -5.2398  -4.9755  -4.7632  -4.6972  -4.6095  -4.5382  -4.4534
    -4.2968  -3.8833  -3.6179  -3.5693  -3.3738  -3.2420  -3.1443  -2.9695
    -2.8696  -2.8336  -2.6283  -2.3740  -2.3056  -2.1366  -1.7093  -1.4450
    -1.3198  -0.9441  -0.8867  -0.8039  -0.7621  -0.6901  -0.6099  -0.5330
    -0.3998  -0.2759  -0.2015  -0.0671  -0.0113   0.0403   0.1553   0.2042
     0.3531   0.4186   0.5162   0.6597   0.7301   0.8132   0.8946   0.9372
     1.0452   1.1388   1.1702   1.2406   1.2865   1.3321   1.4553   1.5161
     1.5837   1.6295   1.6852   1.8090   1.8996   1.9981   2.0244   2.0807
     2.1390   2.2291   2.2874   2.3470

          k =-0.0833-0.4167-0.2500 ( 37688 PWs)   bands (ev):

    -8.5795  -7.8255  -7.7624  -7.7138  -7.1891  -7.1323  -6.9525  -6.6708
    -6.5584  -6.5317  -6.2758  -6.2520  -6.0155  -5.7931  -5.7658  -5.4959
    -5.4806  -5.2384  -4.9771  -4.7668  -4.6928  -4.6274  -4.5457  -4.4623
    -4.2916  -3.8546  -3.6030  -3.5643  -3.3941  -3.2415  -3.1434  -2.9812
    -2.8652  -2.8372  -2.5936  -2.3907  -2.3298  -2.1448  -1.7083  -1.4340
    -1.3210  -0.9494  -0.8708  -0.8113  -0.7676  -0.6894  -0.6077  -0.5399
    -0.3859  -0.2602  -0.2205  -0.0746  -0.0099   0.0483   0.1683   0.2194
     0.3452   0.4075   0.4863   0.6929   0.7493   0.8038   0.8260   0.9572
     1.0684   1.1393   1.1638   1.2543   1.2902   1.3481   1.4295   1.5327
     1.6228   1.6470   1.7281   1.8036   1.8630   1.9210   2.0474   2.0778
     2.1264   2.2090   2.2602   2.3394

          k = 0.4167-0.0833 0.4167 ( 37690 PWs)   bands (ev):

    -8.5698  -7.8184  -7.8007  -7.7047  -7.2152  -7.1321  -6.9743  -6.6661
    -6.5457  -6.4914  -6.2403  -6.2207  -5.9918  -5.7759  -5.7701  -5.5246
    -5.4891  -5.3311  -4.9698  -4.7670  -4.7061  -4.6059  -4.5283  -4.4395
    -4.3186  -3.9168  -3.6161  -3.5418  -3.4086  -3.2497  -3.1287  -2.9450
    -2.8776  -2.8009  -2.5391  -2.4259  -2.3050  -2.1368  -1.6981  -1.5541
    -1.3100  -0.9601  -0.8973  -0.8179  -0.7545  -0.6999  -0.5519  -0.4686
    -0.4295  -0.2926  -0.1824  -0.0508  -0.0100   0.0419   0.1368   0.2308
     0.3867   0.4316   0.5361   0.6555   0.6989   0.7816   0.8629   0.9361
     1.0411   1.1208   1.1871   1.2663   1.2873   1.3780   1.4149   1.4945
     1.5351   1.6354   1.6771   1.8690   1.9142   1.9683   2.0751   2.1192
     2.1516   2.2349   2.2441   2.3296

          k = 0.4167-0.4167 0.0833 ( 37690 PWs)   bands (ev):

    -8.5683  -7.8156  -7.8000  -7.7042  -7.2313  -7.1635  -6.9579  -6.6176
    -6.5122  -6.4960  -6.3049  -6.2679  -6.0318  -5.7250  -5.6905  -5.5117
    -5.4521  -5.1226  -4.9699  -4.9611  -4.7882  -4.6936  -4.6104  -4.5152
    -4.3245  -3.6963  -3.6419  -3.5716  -3.2451  -3.1965  -3.0968  -2.9384
    -2.8461  -2.7894  -2.7635  -2.4168  -2.2463  -2.2201  -1.7381  -1.5664
    -1.2890  -0.9785  -0.8103  -0.7589  -0.7433  -0.6763  -0.6567  -0.5939
    -0.2917  -0.1778  -0.1158  -0.0334  -0.0190   0.1374   0.1402   0.2135
     0.3183   0.3510   0.4157   0.5220   0.6791   0.7132   0.8665   0.8869
     1.0043   1.1277   1.1851   1.2803   1.2942   1.3885   1.4844   1.5323
     1.6600   1.6985   1.7501   1.7922   1.8141   1.9864   2.0208   2.0556
     2.1365   2.1458   2.2216   2.3624

          k =-0.4167-0.4167-0.0833 ( 37690 PWs)   bands (ev):

    -8.5683  -7.8147  -7.8009  -7.7041  -7.2332  -7.1612  -6.9580  -6.6169
    -6.5136  -6.4956  -6.3087  -6.2657  -6.0292  -5.7354  -5.6934  -5.4755
    -5.4648  -5.1225  -4.9750  -4.9569  -4.7967  -4.6972  -4.6169  -4.5330
    -4.3131  -3.6642  -3.6254  -3.5743  -3.2634  -3.2314  -3.0682  -2.9374
    -2.8432  -2.8187  -2.7286  -2.4028  -2.2646  -2.2502  -1.7293  -1.5777
    -1.2678  -0.9761  -0.8041  -0.7865  -0.7170  -0.6816  -0.6743  -0.5914
    -0.2661  -0.1555  -0.1174  -0.0442  -0.0244   0.1047   0.1365   0.2276
     0.3101   0.3331   0.4669   0.5294   0.6338   0.7054   0.8208   0.9598
     1.0807   1.1066   1.1895   1.1949   1.3138   1.4084   1.4282   1.6266
     1.6417   1.6914   1.7803   1.7816   1.8795   1.9526   1.9824   2.0666
     2.0933   2.1398   2.1916   2.3472

          k = 0.2500-0.2500 0.2500 ( 37740 PWs)   bands (ev):

    -8.5803  -7.7823  -7.7633  -7.7588  -7.1747  -7.1469  -6.9580  -6.6192
    -6.5893  -6.5529  -6.2766  -6.2417  -6.0056  -5.7748  -5.7582  -5.5736
    -5.4741  -5.2479  -4.8580  -4.8277  -4.7009  -4.5580  -4.5401  -4.4922
    -4.3275  -3.8739  -3.6618  -3.5772  -3.3193  -3.1410  -3.1356  -3.0318
    -2.9690  -2.8194  -2.6997  -2.4158  -2.1697  -2.1249  -1.6154  -1.4796
    -1.3859  -0.9068  -0.8907  -0.8232  -0.7411  -0.6387  -0.5828  -0.5552
    -0.4613  -0.2315  -0.1798  -0.0896  -0.0146   0.0919   0.1233   0.1786
     0.3292   0.4389   0.5557   0.6156   0.6978   0.8322   0.9272   0.9421
     1.0051   1.0126   1.1545   1.2113   1.2188   1.3109   1.4572   1.5285
     1.6437   1.7254   1.7346   1.7990   1.8094   1.9117   1.9634   2.0173
     2.1075   2.2922   2.3159   2.3853

          k = 0.2500-0.2500 0.4167 ( 37719 PWs)   bands (ev):

    -8.5706  -7.8016  -7.7769  -7.7480  -7.2048  -7.1434  -6.9785  -6.6163
    -6.5869  -6.5015  -6.2440  -6.2070  -5.9740  -5.7819  -5.7616  -5.5673
    -5.4935  -5.3361  -4.8597  -4.8243  -4.7036  -4.5520  -4.5321  -4.4918
    -4.3492  -3.9001  -3.6572  -3.5630  -3.3601  -3.1417  -3.1186  -3.0466
    -2.9380  -2.7952  -2.5990  -2.4615  -2.1672  -2.1330  -1.6321  -1.5254
    -1.3934  -0.9270  -0.9064  -0.8438  -0.7269  -0.6003  -0.5843  -0.5458
    -0.4376  -0.2373  -0.2241  -0.0442  -0.0086   0.1212   0.1714   0.1743
     0.3095   0.4256   0.5597   0.6430   0.6503   0.7977   0.9018   0.9720
     0.9934   1.0315   1.1951   1.2080   1.2971   1.3048   1.3320   1.5103
     1.6131   1.7587   1.7679   1.7863   1.8408   1.9914   2.0214   2.0362
     2.1170   2.2049   2.2977   2.3941

          k = 0.4167-0.2500 0.2500 ( 37719 PWs)   bands (ev):

    -8.5695  -7.8149  -7.7573  -7.7536  -7.1965  -7.1755  -6.9683  -6.5882
    -6.5559  -6.5170  -6.2806  -6.2378  -6.0018  -5.7576  -5.7337  -5.5341
    -5.4656  -5.2241  -4.9679  -4.8460  -4.7482  -4.6350  -4.5572  -4.5197
    -4.3248  -3.8126  -3.6343  -3.5618  -3.3107  -3.1762  -3.0914  -2.9641
    -2.8852  -2.8016  -2.6844  -2.4431  -2.2346  -2.1859  -1.6929  -1.4586
    -1.4319  -0.9496  -0.8774  -0.8083  -0.7485  -0.6489  -0.5729  -0.5442
    -0.3948  -0.1939  -0.1380  -0.1053  -0.0195   0.0878   0.1663   0.2236
     0.3514   0.4282   0.5198   0.5792   0.6961   0.8206   0.8680   0.9379
     1.0012   1.0616   1.1643   1.2437   1.2971   1.3778   1.4245   1.4957
     1.6238   1.6894   1.7253   1.7963   1.8558   1.8863   1.9683   2.0728
     2.1221   2.2200   2.2815   2.3189

          k =-0.4167-0.2500-0.2500 ( 37719 PWs)   bands (ev):

    -8.5695  -7.8144  -7.7578  -7.7536  -7.2069  -7.1640  -6.9689  -6.5894
    -6.5550  -6.5172  -6.2855  -6.2371  -5.9944  -5.7760  -5.7368  -5.4906
    -5.4725  -5.2221  -4.9712  -4.8445  -4.7555  -4.6572  -4.5841  -4.5307
    -4.3093  -3.7609  -3.5974  -3.5572  -3.3643  -3.1755  -3.0781  -2.9856
    -2.8779  -2.8146  -2.6378  -2.4248  -2.3069  -2.2054  -1.6850  -1.4801
    -1.3964  -0.9498  -0.8524  -0.8032  -0.7669  -0.6635  -0.5812  -0.5424
    -0.3431  -0.2588  -0.0990  -0.0854  -0.0265   0.0692   0.1737   0.2430
     0.3559   0.3902   0.5092   0.6124   0.7055   0.7810   0.8244   0.9897
     1.0119   1.0709   1.1734   1.2347   1.2972   1.3629   1.5024   1.5479
     1.5979   1.6544   1.7389   1.8065   1.8633   1.8960   1.9782   2.0503
     2.1141   2.1568   2.1978   2.3033

          k = 0.4167-0.2500 0.4167 ( 37725 PWs)   bands (ev):

    -8.5598  -7.8081  -7.7925  -7.7475  -7.2201  -7.1782  -6.9901  -6.5843
    -6.5233  -6.4992  -6.2451  -6.2021  -5.9666  -5.7569  -5.7412  -5.5379
    -5.4819  -5.3184  -4.9621  -4.8455  -4.7578  -4.6286  -4.5527  -4.5149
    -4.3427  -3.8405  -3.6300  -3.5427  -3.3435  -3.1595  -3.0936  -2.9231
    -2.8973  -2.7756  -2.6104  -2.4947  -2.2364  -2.1923  -1.6670  -1.5574
    -1.4361  -0.9558  -0.9024  -0.8269  -0.7333  -0.6356  -0.5119  -0.4978
    -0.4219  -0.2543  -0.1770  -0.0565  -0.0009   0.1455   0.1700   0.2543
     0.3725   0.4225   0.5771   0.6202   0.7307   0.8262   0.8664   0.8959
     0.9637   1.0498   1.1579   1.2327   1.2950   1.3221   1.3974   1.5162
     1.5659   1.6102   1.6918   1.8359   1.8694   1.9082   2.0124   2.0448
     2.1349   2.2082   2.2513   2.3315

          k = 0.4167-0.4167 0.2500 ( 37725 PWs)   bands (ev):

    -8.5590  -7.8103  -7.7900  -7.7452  -7.2271  -7.1944  -6.9814  -6.5593
    -6.5089  -6.4940  -6.2868  -6.2290  -5.9911  -5.7304  -5.6968  -5.5198
    -5.4650  -5.2079  -4.9656  -4.9547  -4.8001  -4.6847  -4.6075  -4.5152
    -4.3508  -3.7241  -3.6249  -3.5604  -3.2536  -3.2072  -3.0503  -2.9225
    -2.8559  -2.7735  -2.7102  -2.4732  -2.2539  -2.2240  -1.7021  -1.5633
    -1.4197  -0.9766  -0.8484  -0.7716  -0.7252  -0.6325  -0.5901  -0.5457
    -0.3375  -0.1759  -0.1207  -0.1053  -0.0263   0.1832   0.1942   0.2211
     0.3596   0.3935   0.5180   0.5679   0.6947   0.7588   0.8458   0.9169
     0.9740   1.0906   1.1317   1.2718   1.2945   1.3429   1.4223   1.4931
     1.6391   1.7007   1.7410   1.7707   1.7993   1.8462   1.9458   2.0708
     2.1406   2.1461   2.2553   2.2986

          k =-0.4167-0.4167-0.2500 ( 37725 PWs)   bands (ev):

    -8.5590  -7.8094  -7.7910  -7.7451  -7.2312  -7.1898  -6.9817  -6.5586
    -6.5100  -6.4937  -6.2890  -6.2287  -5.9878  -5.7407  -5.6998  -5.4922
    -5.4702  -5.2073  -4.9708  -4.9496  -4.8080  -4.6920  -4.6127  -4.5320
    -4.3394  -3.7001  -3.5924  -3.5702  -3.2846  -3.2177  -3.0303  -2.9288
    -2.8544  -2.7892  -2.6849  -2.4581  -2.2662  -2.2592  -1.6942  -1.5777
    -1.4023  -0.9758  -0.8219  -0.7728  -0.7396  -0.6519  -0.5963  -0.5347
    -0.3093  -0.2200  -0.1005  -0.0765  -0.0355   0.1437   0.1841   0.2591
     0.3661   0.3847   0.5394   0.5528   0.6835   0.7280   0.8474   0.9335
     1.0269   1.1029   1.1744   1.1922   1.2364   1.4046   1.4250   1.5343
     1.6067   1.6590   1.7589   1.7888   1.7922   1.8883   1.9604   2.0921
     2.1119   2.1548   2.1818   2.2812

          k = 0.4167-0.4167 0.4167 ( 37728 PWs)   bands (ev):

    -8.5492  -7.8049  -7.7837  -7.7794  -7.2246  -7.2233  -7.0039  -6.5172
    -6.5018  -6.4920  -6.2483  -6.1904  -5.9490  -5.7369  -5.7031  -5.5302
    -5.4779  -5.3048  -4.9610  -4.9478  -4.8127  -4.6771  -4.6042  -4.5154
    -4.3659  -3.7533  -3.6156  -3.5486  -3.2797  -3.1989  -3.0048  -2.9098
    -2.8676  -2.7562  -2.6369  -2.5359  -2.2612  -2.2271  -1.6635  -1.5610
    -1.5407  -0.9749  -0.8858  -0.7966  -0.7104  -0.6059  -0.4994  -0.4709
    -0.4028  -0.2344  -0.1820  -0.0634  -0.0214   0.2001   0.2329   0.2412
     0.3492   0.4841   0.6608   0.6776   0.7213   0.7875   0.8444   0.9403
     0.9415   1.0392   1.0592   1.2267   1.2753   1.3162   1.3440   1.4318
     1.4914   1.6557   1.6623   1.7930   1.8564   1.8754   1.9457   2.0517
     2.0989   2.2027   2.2306   2.2512

     highest occupied level (ev):     2.3941

!    total energy              =    -327.03689435 Ry
     estimated scf accuracy    <       0.00000062 Ry

     The total energy is the sum of the following terms:
     one-electron contribution =     -81.48781963 Ry
     hartree contribution      =      90.16628926 Ry
     xc contribution           =     -94.38434603 Ry
     ewald contribution        =    -241.33101794 Ry

     convergence has been achieved in  33 iterations

     Forces acting on atoms (cartesian axes, Ry/au):

     atom    1 type  1   force =    -0.00157117   -0.00157117   -0.00742216
     atom    2 type  1   force =    -0.01281066    0.01281066    0.00068039
     atom    3 type  1   force =     0.01281066   -0.01281066    0.00068039
     atom    4 type  1   force =     0.00157117    0.00157117   -0.00742216
     atom    5 type  1   force =    -0.00163665   -0.00163665   -0.00485239
     atom    6 type  1   force =    -0.00654354    0.00654354    0.00097053
     atom    7 type  1   force =     0.00654354   -0.00654354    0.00097053
     atom    8 type  1   force =     0.00163665    0.00163665   -0.00485239
     atom    9 type  1   force =     0.00000000    0.00000000   -0.02932735
     atom   10 type  1   force =     0.00000000    0.00000000    0.00336138
     atom   11 type  1   force =     0.00140000   -0.00069318   -0.00088600
     atom   12 type  1   force =    -0.00140000    0.00069318   -0.00088600
     atom   13 type  1   force =     0.00825629    0.01123739    0.01919969
     atom   14 type  1   force =    -0.00825629   -0.01123739    0.01919969
     atom   15 type  1   force =    -0.00069318    0.00140000   -0.00088600
     atom   16 type  1   force =     0.00069318   -0.00140000   -0.00088600
     atom   17 type  1   force =     0.01123739    0.00825629    0.01919969
     atom   18 type  1   force =    -0.01123739   -0.00825629    0.01919969
     atom   19 type  1   force =    -0.00412145   -0.00412145   -0.00777629
     atom   20 type  1   force =     0.01125443   -0.02274083    0.00320494
     atom   21 type  1   force =    -0.02274083    0.01125443    0.00320494
     atom   22 type  1   force =    -0.00520847   -0.00520847    0.01071018
     atom   23 type  1   force =    -0.00244364   -0.00244364   -0.00228150
     atom   24 type  1   force =     0.02334566    0.00731449   -0.00526109
     atom   25 type  1   force =     0.00731449    0.02334566   -0.00526109
     atom   26 type  1   force =     0.01083045    0.01083045   -0.00532515
     atom   27 type  1   force =     0.00520847    0.00520847    0.01071018
     atom   28 type  1   force =     0.02274083   -0.01125443    0.00320494
     atom   29 type  1   force =    -0.01125443    0.02274083    0.00320494
     atom   30 type  1   force =     0.00412145    0.00412145   -0.00777629
     atom   31 type  1   force =    -0.01083045   -0.01083045   -0.00532515
     atom   32 type  1   force =    -0.00731449   -0.02334566   -0.00526109
     atom   33 type  1   force =    -0.02334566   -0.00731449   -0.00526109
     atom   34 type  1   force =     0.00244364    0.00244364   -0.00228150
     atom   35 type  1   force =    -0.00620948   -0.02625188    0.00174434
     atom   36 type  1   force =     0.01233782   -0.01233782   -0.01060340
     atom   37 type  1   force =    -0.00269516    0.00269516    0.00287899
     atom   38 type  1   force =     0.02625188    0.00620948    0.00174434
     atom   39 type  1   force =    -0.02625188   -0.00620948    0.00174434
     atom   40 type  1   force =     0.00269516   -0.00269516    0.00287899
     atom   41 type  1   force =    -0.01233782    0.01233782   -0.01060340
     atom   42 type  1   force =     0.00620948    0.02625188    0.00174434

     Total force =     0.118977     Total SCF correction =     0.000679


     Computing stress (Cartesian axis) and pressure

          total   stress  (Ry/bohr**3)                   (kbar)     P=      -34.01
  -0.00024593   0.00000321   0.00000000          -36.18        0.47        0.00
   0.00000321  -0.00024593   0.00000000            0.47      -36.18        0.00
   0.00000000   0.00000000  -0.00020175            0.00        0.00      -29.68


     Writing output data file ./Si64.save/

     init_run     :     29.68s CPU     60.08s WALL (       1 calls)
     electrons    :   8171.01s CPU  17296.30s WALL (       1 calls)
     forces       :     18.60s CPU     49.11s WALL (       1 calls)
     stress       :     12.80s CPU     20.53s WALL (       1 calls)

     Called by init_run:
     wfcinit      :     29.50s CPU     59.88s WALL (       1 calls)
     potinit      :      0.03s CPU      0.03s WALL (       1 calls)
     hinit0       :      0.02s CPU      0.03s WALL (       1 calls)

     Called by electrons:
     c_bands      :   8116.01s CPU  17239.48s WALL (      34 calls)
     sum_band     :     50.91s CPU     51.94s WALL (      34 calls)
     v_of_rho     :      0.83s CPU      1.12s WALL (      34 calls)
     mix_rho      :      3.12s CPU      3.59s WALL (      34 calls)

     Called by c_bands:
     init_us_2    :      2.93s CPU      4.66s WALL (    2556 calls)
     cegterg      :   8003.20s CPU  16994.85s WALL (    1224 calls)

     Called by *egterg:
     cdiaghg      :   2220.13s CPU   2939.17s WALL (   11531 calls)
     h_psi        :   2096.99s CPU   5446.35s WALL (   11603 calls)
     g_psi        :      0.92s CPU      1.75s WALL (   10343 calls)

     Called by h_psi:
     h_psi:calbec :   1329.66s CPU   3571.79s WALL (   11603 calls)
     vloc_psi     :    537.51s CPU    765.05s WALL (   11603 calls)
     add_vuspsi   :    228.34s CPU   1097.94s WALL (   11603 calls)

     General routines
     calbec       :   1352.43s CPU   3619.49s WALL (   11783 calls)
     fft          :      0.50s CPU      0.70s WALL (     348 calls)
     ffts         :      0.03s CPU      0.03s WALL (      34 calls)
     fftw         :    567.48s CPU    780.31s WALL (  703332 calls)

     Parallel routines
     fft_scatt_xy :     24.09s CPU     25.65s WALL (  703714 calls)
     fft_scatt_yz :    371.46s CPU    555.12s WALL (  703714 calls)

     PWSCF        :      2h17m CPU      4h50m WALL


   This run was terminated on:  13: 1: 9  24Feb2022            

=------------------------------------------------------------------------------=
   JOB DONE.
=------------------------------------------------------------------------------=
