
     Program PWSCF v.6.7MaX starts on 24Feb2022 at 13: 1:10 

     This program is part of the open-source Quantum ESPRESSO suite
     for quantum simulation of materials; please cite
         "P. Giannozzi et al., J. Phys.:Condens. Matter 21 395502 (2009);
         "P. Giannozzi et al., J. Phys.:Condens. Matter 29 465901 (2017);
          URL http://www.quantum-espresso.org", 
     in publications or presentations arising from this work. More details at
     http://www.quantum-espresso.org/quote

     Parallel version (MPI), running on    36 processors

     MPI processes distributed on     1 nodes
     R & G space division:  proc/nbgrp/npool/nimage =      36
     Waiting for input...
     Reading input from standard input

     Current dimensions of program PWSCF are:
     Max number of different atomic species (ntypx) = 10
     Max number of k-points (npk) =  40000
     Max angular momentum in pseudopotentials (lmaxx) =  3

     Subspace diagonalization in iterative solution of the eigenvalue problem:
     a serial algorithm will be used

     Message from routine setup:
     using ibrav=0 with symmetry is DISCOURAGED, use correct ibrav instead

     Parallelization info
     --------------------
     sticks:   dense  smooth     PW     G-vecs:    dense   smooth      PW
     Min         188     188     49                11708    11708    1601
     Max         189     189     50                11713    11713    1606
     Sum        6785    6785   1789               421541   421541   57747



     bravais-lattice index     =            0
     lattice parameter (alat)  =      20.6660  a.u.
     unit-cell volume          =    8826.0878 (a.u.)^3
     number of atoms/cell      =           42
     number of atomic types    =            1
     number of electrons       =       168.00
     number of Kohn-Sham states=           84
     kinetic-energy cutoff     =      50.0000  Ry
     charge density cutoff     =     200.0000  Ry
     scf convergence threshold =      1.0E-06
     mixing beta               =       0.7000
     number of iterations used =            8  plain     mixing
     Exchange-correlation=  SLA  PW   PBE  PBE
                           (   1   4   3   4   0   0   0)

     celldm(1)=  20.665984  celldm(2)=   0.000000  celldm(3)=   0.000000
     celldm(4)=   0.000000  celldm(5)=   0.000000  celldm(6)=   0.000000

     crystal axes: (cart. coord. in units of alat)
               a(1) = (   1.000000   0.000000   0.000000 )  
               a(2) = (   0.000000   1.000000   0.000000 )  
               a(3) = (   0.000000   0.000000   1.000000 )  

     reciprocal axes: (cart. coord. in units 2 pi/alat)
               b(1) = (  1.000000  0.000000  0.000000 )  
               b(2) = (  0.000000  1.000000  0.000000 )  
               b(3) = (  0.000000  0.000000  1.000000 )  


     PseudoPot. # 1 for Si read from file:
     ./Si.pbe-rrkj.UPF
     MD5 check sum: cf7ab5690cd9a85b22c4813f7e365554
     Pseudo is Norm-conserving, Zval =  4.0
     Generated by new atomic code, or converted to UPF format
     Using radial grid of  883 points,  3 beta functions with: 
                l(1) =   0
                l(2) =   0
                l(3) =   1

     atomic species   valence    mass     pseudopotential
        Si             4.00    28.08600     Si( 1.00)

      4 Sym. Ops. (no inversion) found



   Cartesian axes

     site n.     atom                  positions (alat units)
         1           Si  tau(   1) = (   0.2500000   0.2500000   0.0000000  )
         2           Si  tau(   2) = (   0.7500000   0.2500000   0.0000000  )
         3           Si  tau(   3) = (   0.2500000   0.7500000   0.0000000  )
         4           Si  tau(   4) = (   0.7500000   0.7500000   0.0000000  )
         5           Si  tau(   5) = (   0.2500000   0.2500000   0.5000000  )
         6           Si  tau(   6) = (   0.7500000   0.2500000   0.5000000  )
         7           Si  tau(   7) = (   0.2500000   0.7500000   0.5000000  )
         8           Si  tau(   8) = (   0.7500000   0.7500000   0.5000000  )
         9           Si  tau(   9) = (   0.5000000   0.5000000   0.0000000  )
        10           Si  tau(  10) = (   0.5000000   0.5000000   0.5000000  )
        11           Si  tau(  11) = (   0.2500000   0.5000000   0.2500000  )
        12           Si  tau(  12) = (   0.7500000   0.5000000   0.2500000  )
        13           Si  tau(  13) = (   0.2500000   0.5000000   0.7500000  )
        14           Si  tau(  14) = (   0.7500000   0.5000000   0.7500000  )
        15           Si  tau(  15) = (   0.5000000   0.2500000   0.2500000  )
        16           Si  tau(  16) = (   0.5000000   0.7500000   0.2500000  )
        17           Si  tau(  17) = (   0.5000000   0.2500000   0.7500000  )
        18           Si  tau(  18) = (   0.5000000   0.7500000   0.7500000  )
        19           Si  tau(  19) = (   0.3750000   0.3750000   0.1250000  )
        20           Si  tau(  20) = (   0.8750000   0.3750000   0.1250000  )
        21           Si  tau(  21) = (   0.3750000   0.8750000   0.1250000  )
        22           Si  tau(  22) = (   0.8750000   0.8750000   0.1250000  )
        23           Si  tau(  23) = (   0.3750000   0.3750000   0.6250000  )
        24           Si  tau(  24) = (   0.8750000   0.3750000   0.6250000  )
        25           Si  tau(  25) = (   0.3750000   0.8750000   0.6250000  )
        26           Si  tau(  26) = (   0.8750000   0.8750000   0.6250000  )
        27           Si  tau(  27) = (   0.1250000   0.1250000   0.1250000  )
        28           Si  tau(  28) = (   0.6250000   0.1250000   0.1250000  )
        29           Si  tau(  29) = (   0.1250000   0.6250000   0.1250000  )
        30           Si  tau(  30) = (   0.6250000   0.6250000   0.1250000  )
        31           Si  tau(  31) = (   0.1250000   0.1250000   0.6250000  )
        32           Si  tau(  32) = (   0.6250000   0.1250000   0.6250000  )
        33           Si  tau(  33) = (   0.1250000   0.6250000   0.6250000  )
        34           Si  tau(  34) = (   0.6250000   0.6250000   0.6250000  )
        35           Si  tau(  35) = (   0.3750000   0.1250000   0.3750000  )
        36           Si  tau(  36) = (   0.8750000   0.1250000   0.3750000  )
        37           Si  tau(  37) = (   0.3750000   0.6250000   0.3750000  )
        38           Si  tau(  38) = (   0.8750000   0.6250000   0.3750000  )
        39           Si  tau(  39) = (   0.1250000   0.3750000   0.3750000  )
        40           Si  tau(  40) = (   0.6250000   0.3750000   0.3750000  )
        41           Si  tau(  41) = (   0.1250000   0.8750000   0.3750000  )
        42           Si  tau(  42) = (   0.6250000   0.8750000   0.3750000  )

     number of k points=    36
                       cart. coord. in units 2pi/alat
        k(    1) = (   0.0833333   0.0833333   0.0833333), wk =   0.0370370
        k(    2) = (   0.0833333   0.0833333   0.2500000), wk =   0.0370370
        k(    3) = (   0.0833333   0.0833333   0.4166667), wk =   0.0370370
        k(    4) = (   0.0833333   0.2500000   0.2500000), wk =   0.0740741
        k(    5) = (   0.0833333   0.2500000   0.4166667), wk =   0.0740741
        k(    6) = (   0.0833333   0.4166667   0.4166667), wk =   0.0740741
        k(    7) = (   0.2500000   0.2500000   0.2500000), wk =   0.0370370
        k(    8) = (   0.2500000   0.2500000   0.4166667), wk =   0.0370370
        k(    9) = (   0.2500000   0.4166667   0.4166667), wk =   0.0740741
        k(   10) = (   0.4166667   0.4166667   0.4166667), wk =   0.0370370
        k(   11) = (   0.0833333  -0.0833333   0.0833333), wk =   0.0370370
        k(   12) = (   0.0833333  -0.0833333   0.2500000), wk =   0.0370370
        k(   13) = (   0.2500000  -0.0833333   0.0833333), wk =   0.0740741
        k(   14) = (  -0.2500000  -0.0833333  -0.0833333), wk =   0.0740741
        k(   15) = (   0.0833333  -0.0833333   0.4166667), wk =   0.0370370
        k(   16) = (   0.4166667  -0.0833333   0.0833333), wk =   0.0740741
        k(   17) = (  -0.4166667  -0.0833333  -0.0833333), wk =   0.0740741
        k(   18) = (   0.2500000  -0.0833333   0.2500000), wk =   0.0740741
        k(   19) = (   0.2500000  -0.2500000   0.0833333), wk =   0.0370370
        k(   20) = (  -0.2500000  -0.2500000  -0.0833333), wk =   0.0370370
        k(   21) = (   0.2500000  -0.0833333   0.4166667), wk =   0.0740741
        k(   22) = (   0.4166667  -0.2500000   0.0833333), wk =   0.0740741
        k(   23) = (  -0.4166667  -0.2500000  -0.0833333), wk =   0.0740741
        k(   24) = (  -0.0833333   0.4166667   0.2500000), wk =   0.0740741
        k(   25) = (  -0.0833333  -0.4166667  -0.2500000), wk =   0.0740741
        k(   26) = (   0.4166667  -0.0833333   0.4166667), wk =   0.0740741
        k(   27) = (   0.4166667  -0.4166667   0.0833333), wk =   0.0370370
        k(   28) = (  -0.4166667  -0.4166667  -0.0833333), wk =   0.0370370
        k(   29) = (   0.2500000  -0.2500000   0.2500000), wk =   0.0370370
        k(   30) = (   0.2500000  -0.2500000   0.4166667), wk =   0.0370370
        k(   31) = (   0.4166667  -0.2500000   0.2500000), wk =   0.0740741
        k(   32) = (  -0.4166667  -0.2500000  -0.2500000), wk =   0.0740741
        k(   33) = (   0.4166667  -0.2500000   0.4166667), wk =   0.0740741
        k(   34) = (   0.4166667  -0.4166667   0.2500000), wk =   0.0370370
        k(   35) = (  -0.4166667  -0.4166667  -0.2500000), wk =   0.0370370
        k(   36) = (   0.4166667  -0.4166667   0.4166667), wk =   0.0370370

     Dense  grid:   421541 G-vectors     FFT dimensions: (  96,  96,  96)

     Estimated max dynamical RAM per process >      90.09 MB

     Estimated total dynamical RAM >       3.17 GB

     Initial potential from superposition of free atoms

     starting charge  167.97676, renormalised to  168.00000
     Starting wfcs are  168 randomized atomic wfcs

     total cpu time spent up to now is       58.7 secs

     Self-consistent Calculation

     iteration #  1     ecut=    50.00 Ry     beta= 0.70
     Davidson diagonalization with overlap
     ethr =  1.00E-02,  avg # of iterations =  2.0

     Threshold (ethr) on eigenvalues was too large:
     Diagonalizing with lowered threshold

     Davidson diagonalization with overlap
     ethr =  8.61E-04,  avg # of iterations =  3.2

     total cpu time spent up to now is      450.1 secs

     total energy              =    -326.26873010 Ry
     estimated scf accuracy    <       1.79287378 Ry

     iteration #  2     ecut=    50.00 Ry     beta= 0.70
     Davidson diagonalization with overlap
     ethr =  1.07E-03,  avg # of iterations = 13.9

     total cpu time spent up to now is     1264.3 secs

     total energy              =    -323.49830072 Ry
     estimated scf accuracy    <      33.09869535 Ry

     iteration #  3     ecut=    50.00 Ry     beta= 0.70
     Davidson diagonalization with overlap
     ethr =  1.07E-03,  avg # of iterations = 10.9

     total cpu time spent up to now is     1908.1 secs

     total energy              =    -326.73971128 Ry
     estimated scf accuracy    <       1.38976090 Ry

     iteration #  4     ecut=    50.00 Ry     beta= 0.70
     Davidson diagonalization with overlap
     ethr =  8.27E-04,  avg # of iterations =  8.1

     total cpu time spent up to now is     2403.8 secs

     total energy              =    -326.85649537 Ry
     estimated scf accuracy    <       2.09339506 Ry

     iteration #  5     ecut=    50.00 Ry     beta= 0.70
     Davidson diagonalization with overlap
     ethr =  8.27E-04,  avg # of iterations =  4.9

     total cpu time spent up to now is     2720.2 secs

     total energy              =    -326.94097214 Ry
     estimated scf accuracy    <       0.35186223 Ry

     iteration #  6     ecut=    50.00 Ry     beta= 0.70
     Davidson diagonalization with overlap
     ethr =  2.09E-04,  avg # of iterations =  6.8

     total cpu time spent up to now is     3142.7 secs

     total energy              =    -327.02968556 Ry
     estimated scf accuracy    <       0.08739872 Ry

     iteration #  7     ecut=    50.00 Ry     beta= 0.70
     Davidson diagonalization with overlap
     c_bands:  1 eigenvalues not converged
     c_bands:  1 eigenvalues not converged
     ethr =  5.20E-05,  avg # of iterations =  8.8

     total cpu time spent up to now is     3666.1 secs

     total energy              =    -327.02752252 Ry
     estimated scf accuracy    <       0.08608818 Ry

     iteration #  8     ecut=    50.00 Ry     beta= 0.70
     Davidson diagonalization with overlap
     ethr =  5.12E-05,  avg # of iterations =  3.2

     total cpu time spent up to now is     3899.7 secs

     total energy              =    -327.02840968 Ry
     estimated scf accuracy    <       0.02520509 Ry

     iteration #  9     ecut=    50.00 Ry     beta= 0.70
     Davidson diagonalization with overlap
     c_bands:  1 eigenvalues not converged
     c_bands:  1 eigenvalues not converged
     c_bands:  1 eigenvalues not converged
     c_bands:  1 eigenvalues not converged
     c_bands:  1 eigenvalues not converged
     c_bands:  1 eigenvalues not converged
     c_bands:  1 eigenvalues not converged
     c_bands:  1 eigenvalues not converged
     ethr =  1.50E-05,  avg # of iterations = 13.9

     total cpu time spent up to now is     4701.1 secs

     total energy              =    -327.03730419 Ry
     estimated scf accuracy    <       0.01555018 Ry

     iteration # 10     ecut=    50.00 Ry     beta= 0.70
     Davidson diagonalization with overlap
     c_bands:  1 eigenvalues not converged
     c_bands:  1 eigenvalues not converged
     c_bands:  1 eigenvalues not converged
     ethr =  9.26E-06,  avg # of iterations =  3.8

     total cpu time spent up to now is     4963.6 secs

     total energy              =    -327.03549230 Ry
     estimated scf accuracy    <       0.01633347 Ry

     iteration # 11     ecut=    50.00 Ry     beta= 0.70
     Davidson diagonalization with overlap
     c_bands:  1 eigenvalues not converged
     ethr =  9.26E-06,  avg # of iterations =  6.2

     total cpu time spent up to now is     5348.1 secs

     total energy              =    -327.03589072 Ry
     estimated scf accuracy    <       0.00481978 Ry

     iteration # 12     ecut=    50.00 Ry     beta= 0.70
     Davidson diagonalization with overlap
     c_bands:  1 eigenvalues not converged
     c_bands:  1 eigenvalues not converged
     ethr =  2.87E-06,  avg # of iterations = 11.2

     total cpu time spent up to now is     6014.1 secs

     total energy              =    -327.03683742 Ry
     estimated scf accuracy    <       0.00053250 Ry

     iteration # 13     ecut=    50.00 Ry     beta= 0.70
     Davidson diagonalization with overlap
     c_bands:  1 eigenvalues not converged
     c_bands:  2 eigenvalues not converged
     c_bands:  2 eigenvalues not converged
     c_bands:  1 eigenvalues not converged
     c_bands:  1 eigenvalues not converged
     c_bands:  1 eigenvalues not converged
     c_bands:  1 eigenvalues not converged
     c_bands:  1 eigenvalues not converged
     c_bands:  1 eigenvalues not converged
     c_bands:  1 eigenvalues not converged
     ethr =  3.17E-07,  avg # of iterations = 17.2

     total cpu time spent up to now is     6995.6 secs

     total energy              =    -327.03716041 Ry
     estimated scf accuracy    <       0.00427471 Ry

     iteration # 14     ecut=    50.00 Ry     beta= 0.70
     Davidson diagonalization with overlap
     c_bands:  1 eigenvalues not converged
     c_bands:  2 eigenvalues not converged
     c_bands:  1 eigenvalues not converged
     c_bands:  1 eigenvalues not converged
     c_bands:  1 eigenvalues not converged
     c_bands:  1 eigenvalues not converged
     ethr =  3.17E-07,  avg # of iterations =  8.6

     total cpu time spent up to now is     7510.5 secs

     total energy              =    -327.03690172 Ry
     estimated scf accuracy    <       0.00245490 Ry

     iteration # 15     ecut=    50.00 Ry     beta= 0.70
     Davidson diagonalization with overlap
     c_bands:  1 eigenvalues not converged
     c_bands:  2 eigenvalues not converged
     c_bands:  1 eigenvalues not converged
     c_bands:  1 eigenvalues not converged
     c_bands:  1 eigenvalues not converged
     ethr =  3.17E-07,  avg # of iterations = 13.9

     total cpu time spent up to now is     8307.4 secs

     total energy              =    -327.03712174 Ry
     estimated scf accuracy    <       0.00015818 Ry

     iteration # 16     ecut=    50.00 Ry     beta= 0.70
     Davidson diagonalization with overlap
     c_bands:  1 eigenvalues not converged
     c_bands:  1 eigenvalues not converged
     c_bands:  1 eigenvalues not converged
     c_bands:  2 eigenvalues not converged
     c_bands:  1 eigenvalues not converged
     ethr =  9.42E-08,  avg # of iterations = 12.4

     total cpu time spent up to now is     9015.0 secs

     total energy              =    -327.03713932 Ry
     estimated scf accuracy    <       0.00012137 Ry

     iteration # 17     ecut=    50.00 Ry     beta= 0.70
     Davidson diagonalization with overlap
     c_bands:  1 eigenvalues not converged
     c_bands:  1 eigenvalues not converged
     ethr =  7.22E-08,  avg # of iterations =  3.4

     total cpu time spent up to now is     9251.3 secs

     total energy              =    -327.03713819 Ry
     estimated scf accuracy    <       0.00007537 Ry

     iteration # 18     ecut=    50.00 Ry     beta= 0.70
     Davidson diagonalization with overlap
     c_bands:  1 eigenvalues not converged
     c_bands:  1 eigenvalues not converged
     c_bands:  1 eigenvalues not converged
     ethr =  4.49E-08,  avg # of iterations = 10.0

     total cpu time spent up to now is     9835.1 secs

     total energy              =    -327.03714657 Ry
     estimated scf accuracy    <       0.00001526 Ry

     iteration # 19     ecut=    50.00 Ry     beta= 0.70
     Davidson diagonalization with overlap
     c_bands:  1 eigenvalues not converged
     c_bands:  1 eigenvalues not converged
     c_bands:  1 eigenvalues not converged
     c_bands:  1 eigenvalues not converged
     c_bands:  1 eigenvalues not converged
     c_bands:  1 eigenvalues not converged
     c_bands:  1 eigenvalues not converged
     c_bands:  1 eigenvalues not converged
     ethr =  9.08E-09,  avg # of iterations = 15.8

     total cpu time spent up to now is    10749.5 secs

     total energy              =    -327.03715854 Ry
     estimated scf accuracy    <       0.00007786 Ry

     iteration # 20     ecut=    50.00 Ry     beta= 0.70
     Davidson diagonalization with overlap
     c_bands:  1 eigenvalues not converged
     c_bands:  1 eigenvalues not converged
     c_bands:  1 eigenvalues not converged
     c_bands:  1 eigenvalues not converged
     ethr =  9.08E-09,  avg # of iterations =  3.7

     total cpu time spent up to now is    11002.7 secs

     total energy              =    -327.03715706 Ry
     estimated scf accuracy    <       0.00008062 Ry

     iteration # 21     ecut=    50.00 Ry     beta= 0.70
     Davidson diagonalization with overlap
     c_bands:  1 eigenvalues not converged
     c_bands:  1 eigenvalues not converged
     c_bands:  1 eigenvalues not converged
     ethr =  9.08E-09,  avg # of iterations =  4.6

     total cpu time spent up to now is    11304.5 secs

     total energy              =    -327.03715713 Ry
     estimated scf accuracy    <       0.00005976 Ry

     iteration # 22     ecut=    50.00 Ry     beta= 0.70
     Davidson diagonalization with overlap
     c_bands:  1 eigenvalues not converged
     c_bands:  1 eigenvalues not converged
     c_bands:  1 eigenvalues not converged
     ethr =  9.08E-09,  avg # of iterations =  2.9

     total cpu time spent up to now is    11518.6 secs

     total energy              =    -327.03715889 Ry
     estimated scf accuracy    <       0.00005120 Ry

     iteration # 23     ecut=    50.00 Ry     beta= 0.70
     Davidson diagonalization with overlap
     c_bands:  1 eigenvalues not converged
     c_bands:  1 eigenvalues not converged
     c_bands:  1 eigenvalues not converged
     ethr =  9.08E-09,  avg # of iterations =  2.6

     total cpu time spent up to now is    11711.5 secs

     total energy              =    -327.03715648 Ry
     estimated scf accuracy    <       0.00005192 Ry

     iteration # 24     ecut=    50.00 Ry     beta= 0.70
     Davidson diagonalization with overlap
     c_bands:  1 eigenvalues not converged
     c_bands:  1 eigenvalues not converged
     c_bands:  1 eigenvalues not converged
     c_bands:  1 eigenvalues not converged
     c_bands:  1 eigenvalues not converged
     ethr =  9.08E-09,  avg # of iterations = 11.0

     total cpu time spent up to now is    12347.0 secs

     total energy              =    -327.03715633 Ry
     estimated scf accuracy    <       0.00001449 Ry

     iteration # 25     ecut=    50.00 Ry     beta= 0.70
     Davidson diagonalization with overlap
     c_bands:  1 eigenvalues not converged
     c_bands:  1 eigenvalues not converged
     c_bands:  1 eigenvalues not converged
     c_bands:  1 eigenvalues not converged
     ethr =  8.63E-09,  avg # of iterations = 11.6

     total cpu time spent up to now is    13036.4 secs

     total energy              =    -327.03715851 Ry
     estimated scf accuracy    <       0.00000622 Ry

     iteration # 26     ecut=    50.00 Ry     beta= 0.70
     Davidson diagonalization with overlap
     c_bands:  1 eigenvalues not converged
     c_bands:  1 eigenvalues not converged
     c_bands:  1 eigenvalues not converged
     c_bands:  1 eigenvalues not converged
     ethr =  3.70E-09,  avg # of iterations =  9.8

     total cpu time spent up to now is    13614.5 secs

     total energy              =    -327.03715915 Ry
     estimated scf accuracy    <       0.00000606 Ry

     iteration # 27     ecut=    50.00 Ry     beta= 0.70
     Davidson diagonalization with overlap
     c_bands:  1 eigenvalues not converged
     c_bands:  1 eigenvalues not converged
     c_bands:  1 eigenvalues not converged
     c_bands:  1 eigenvalues not converged
     c_bands:  1 eigenvalues not converged
     ethr =  3.61E-09,  avg # of iterations = 10.5

     total cpu time spent up to now is    14230.0 secs

     total energy              =    -327.03716005 Ry
     estimated scf accuracy    <       0.00001499 Ry

     iteration # 28     ecut=    50.00 Ry     beta= 0.70
     Davidson diagonalization with overlap
     c_bands:  1 eigenvalues not converged
     c_bands:  1 eigenvalues not converged
     c_bands:  1 eigenvalues not converged
     c_bands:  1 eigenvalues not converged
     ethr =  3.61E-09,  avg # of iterations = 11.4

     total cpu time spent up to now is    14903.5 secs

     total energy              =    -327.03715828 Ry
     estimated scf accuracy    <       0.00002575 Ry

     iteration # 29     ecut=    50.00 Ry     beta= 0.70
     Davidson diagonalization with overlap
     c_bands:  1 eigenvalues not converged
     c_bands:  1 eigenvalues not converged
     c_bands:  1 eigenvalues not converged
     c_bands:  1 eigenvalues not converged
     c_bands:  1 eigenvalues not converged
     c_bands:  1 eigenvalues not converged
     ethr =  3.61E-09,  avg # of iterations = 11.1

     total cpu time spent up to now is    15557.1 secs

     total energy              =    -327.03715899 Ry
     estimated scf accuracy    <       0.00000898 Ry

     iteration # 30     ecut=    50.00 Ry     beta= 0.70
     Davidson diagonalization with overlap
     c_bands:  1 eigenvalues not converged
     c_bands:  1 eigenvalues not converged
     ethr =  3.61E-09,  avg # of iterations =  4.2

     total cpu time spent up to now is    15844.4 secs

     total energy              =    -327.03715893 Ry
     estimated scf accuracy    <       0.00000418 Ry

     iteration # 31     ecut=    50.00 Ry     beta= 0.70
     Davidson diagonalization with overlap
     c_bands:  1 eigenvalues not converged
     c_bands:  1 eigenvalues not converged
     c_bands:  1 eigenvalues not converged
     c_bands:  1 eigenvalues not converged
     c_bands:  1 eigenvalues not converged
     ethr =  2.49E-09,  avg # of iterations = 12.1

     total cpu time spent up to now is    16553.2 secs

     total energy              =    -327.03715961 Ry
     estimated scf accuracy    <       0.00000333 Ry

     iteration # 32     ecut=    50.00 Ry     beta= 0.70
     Davidson diagonalization with overlap
     c_bands:  1 eigenvalues not converged
     c_bands:  1 eigenvalues not converged
     ethr =  1.98E-09,  avg # of iterations =  4.1

     total cpu time spent up to now is    16829.3 secs

     total energy              =    -327.03715926 Ry
     estimated scf accuracy    <       0.00000175 Ry

     iteration # 33     ecut=    50.00 Ry     beta= 0.70
     Davidson diagonalization with overlap
     c_bands:  1 eigenvalues not converged
     c_bands:  1 eigenvalues not converged
     c_bands:  1 eigenvalues not converged
     c_bands:  1 eigenvalues not converged
     c_bands:  1 eigenvalues not converged
     c_bands:  1 eigenvalues not converged
     c_bands:  1 eigenvalues not converged
     ethr =  1.04E-09,  avg # of iterations = 14.2

     total cpu time spent up to now is    17642.8 secs

     total energy              =    -327.03715987 Ry
     estimated scf accuracy    <       0.00000156 Ry

     iteration # 34     ecut=    50.00 Ry     beta= 0.70
     Davidson diagonalization with overlap
     c_bands:  1 eigenvalues not converged
     c_bands:  1 eigenvalues not converged
     ethr =  9.31E-10,  avg # of iterations =  3.6

     total cpu time spent up to now is    17885.8 secs

     total energy              =    -327.03715981 Ry
     estimated scf accuracy    <       0.00000131 Ry

     iteration # 35     ecut=    50.00 Ry     beta= 0.70
     Davidson diagonalization with overlap
     c_bands:  1 eigenvalues not converged
     c_bands:  1 eigenvalues not converged
     ethr =  7.80E-10,  avg # of iterations =  2.9

     total cpu time spent up to now is    18095.5 secs

     End of self-consistent calculation

          k = 0.0833 0.0833 0.0833 ( 52665 PWs)   bands (ev):

    -8.6101  -7.7499  -7.7404  -7.7357  -7.1257  -7.0672  -6.9099  -6.7433
    -6.6829  -6.6108  -6.2976  -6.2817  -6.0238  -5.8343  -5.7949  -5.5688
    -5.4858  -5.2354  -4.7913  -4.6599  -4.5955  -4.5507  -4.4908  -4.4531
    -4.2868  -3.7834  -3.6870  -3.5445  -3.4446  -3.3001  -3.1992  -3.0899
    -3.0467  -2.9334  -2.7879  -2.2870  -2.1586  -2.0481  -1.5122  -1.4157
    -1.1919  -0.9012  -0.8332  -0.7739  -0.7507  -0.7330  -0.6016  -0.5679
    -0.4919  -0.4064  -0.2042  -0.0454   0.0125   0.0874   0.0926   0.2637
     0.3095   0.4133   0.5768   0.7007   0.7403   0.8269   0.8997   0.9249
     0.9612   0.9693   1.0954   1.1560   1.2366   1.2832   1.3995   1.5135
     1.5203   1.5791   1.6165   1.7394   1.8014   1.8368   1.9340   2.0640
     2.1132   2.1674   2.2503   2.2779

          k = 0.0833 0.0833 0.2500 ( 52687 PWs)   bands (ev):

    -8.6009  -7.7809  -7.7448  -7.7255  -7.1556  -7.0614  -6.9321  -6.7401
    -6.6805  -6.5473  -6.2802  -6.2560  -5.9941  -5.8434  -5.7945  -5.5791
    -5.4861  -5.3010  -4.7968  -4.6530  -4.5848  -4.5453  -4.4876  -4.4531
    -4.3317  -3.8188  -3.6572  -3.5454  -3.4607  -3.3501  -3.2160  -3.0778
    -3.0375  -2.8822  -2.6649  -2.3188  -2.1583  -2.0311  -1.5205  -1.4752
    -1.2247  -0.8993  -0.8413  -0.7572  -0.7568  -0.7115  -0.6146  -0.5466
    -0.5237  -0.3613  -0.2087  -0.0153  -0.0038   0.0506   0.0765   0.2331
     0.3102   0.3730   0.5225   0.6769   0.6836   0.7285   0.8723   0.9288
     0.9291   0.9931   1.1912   1.2764   1.2847   1.4061   1.4078   1.5451
     1.5474   1.6612   1.6851   1.8187   1.8330   1.8888   1.9789   2.0381
     2.1500   2.1678   2.1768   2.3575

          k = 0.0833 0.0833 0.4167 ( 52715 PWs)   bands (ev):

    -8.5913  -7.8189  -7.7395  -7.7144  -7.1853  -7.0563  -6.9534  -6.7368
    -6.6780  -6.4924  -6.2505  -6.2262  -5.9651  -5.8524  -5.7945  -5.5929
    -5.4865  -5.3761  -4.8023  -4.6464  -4.5735  -4.5419  -4.4810  -4.4576
    -4.3609  -3.8532  -3.6356  -3.5472  -3.4828  -3.3857  -3.2307  -3.0679
    -3.0189  -2.8386  -2.5375  -2.3518  -2.1575  -2.0157  -1.6351  -1.4307
    -1.2494  -0.9162  -0.8474  -0.7620  -0.7322  -0.6785  -0.6403  -0.5567
    -0.5277  -0.3355  -0.2127  -0.0316  -0.0132   0.0668   0.0888   0.1909
     0.3096   0.3262   0.4595   0.6177   0.6380   0.7005   0.8567   0.9360
     0.9407   1.0289   1.2462   1.2885   1.4095   1.4539   1.5032   1.5508
     1.6017   1.6630   1.7018   1.8556   1.9445   1.9571   2.0160   2.0804
     2.1546   2.1753   2.2727   2.2744

          k = 0.0833 0.2500 0.2500 ( 52675 PWs)   bands (ev):

    -8.5905  -7.7831  -7.7719  -7.7239  -7.1729  -7.0966  -6.9445  -6.6958
    -6.6207  -6.5477  -6.2802  -6.2504  -5.9992  -5.8131  -5.7958  -5.5375
    -5.4821  -5.2673  -4.8586  -4.7350  -4.6466  -4.5731  -4.5291  -4.4786
    -4.3048  -3.8222  -3.6054  -3.5836  -3.4203  -3.2790  -3.1124  -3.0866
    -2.9846  -2.8644  -2.6279  -2.3558  -2.2485  -2.0897  -1.5820  -1.4670
    -1.2897  -0.9106  -0.8499  -0.8064  -0.7608  -0.6570  -0.6384  -0.5521
    -0.4577  -0.2956  -0.2363  -0.0122  -0.0074   0.0527   0.1431   0.1916
     0.2867   0.4142   0.5419   0.6545   0.7289   0.7837   0.8416   0.9387
     0.9725   1.0374   1.1987   1.2470   1.2947   1.3690   1.4369   1.5533
     1.5956   1.6594   1.7271   1.8396   1.8648   1.9200   1.9759   2.0273
     2.1391   2.1780   2.2547   2.2841

          k = 0.0833 0.2500 0.4167 ( 52682 PWs)   bands (ev):

    -8.5809  -7.8100  -7.7760  -7.7147  -7.2014  -7.0930  -6.9661  -6.6923
    -6.6187  -6.4939  -6.2475  -6.2212  -5.9696  -5.8203  -5.7938  -5.5468
    -5.4904  -5.3495  -4.8597  -4.7330  -4.6470  -4.5713  -4.5181  -4.4742
    -4.3308  -3.8563  -3.5861  -3.5798  -3.4520  -3.2913  -3.1017  -3.0925
    -2.9716  -2.8250  -2.5119  -2.3908  -2.2647  -2.0812  -1.6267  -1.4973
    -1.3089  -0.9227  -0.8647  -0.8007  -0.7536  -0.6618  -0.5936  -0.5210
    -0.4986  -0.2701  -0.2433  -0.0439   0.0009   0.0984   0.1235   0.2050
     0.2732   0.3906   0.5123   0.6447   0.6736   0.8001   0.8516   0.8832
     0.9744   1.0576   1.2295   1.2692   1.3392   1.3940   1.4524   1.5429
     1.6591   1.6717   1.7415   1.8292   1.9081   1.9901   2.0279   2.0689
     2.1382   2.1919   2.2050   2.3160

          k = 0.0833 0.4167 0.4167 ( 52738 PWs)   bands (ev):

    -8.5698  -7.8183  -7.8008  -7.7051  -7.2177  -7.1297  -6.9747  -6.6668
    -6.5464  -6.4904  -6.2410  -6.2219  -5.9865  -5.7856  -5.7694  -5.5074
    -5.4929  -5.3291  -4.9719  -4.7700  -4.7052  -4.6216  -4.5345  -4.4504
    -4.3136  -3.8899  -3.6030  -3.5324  -3.4261  -3.2500  -3.1294  -2.9581
    -2.8727  -2.8026  -2.5099  -2.4044  -2.3678  -2.1410  -1.6987  -1.5447
    -1.3149  -0.9642  -0.8749  -0.8228  -0.7614  -0.6985  -0.5481  -0.4782
    -0.4174  -0.3035  -0.1629  -0.0986   0.0043   0.0591   0.1430   0.2718
     0.3716   0.3993   0.5156   0.6592   0.7172   0.8095   0.8365   0.9388
     1.0530   1.1099   1.1661   1.2593   1.3065   1.3715   1.4371   1.5138
     1.5702   1.6119   1.7563   1.8160   1.8906   1.9504   2.0619   2.1142
     2.1433   2.1959   2.2346   2.3248

          k = 0.2500 0.2500 0.2500 ( 52677 PWs)   bands (ev):

    -8.5803  -7.7787  -7.7637  -7.7623  -7.1909  -7.1290  -6.9587  -6.6252
    -6.5877  -6.5502  -6.2859  -6.2408  -5.9878  -5.7962  -5.7808  -5.4970
    -5.4839  -5.2421  -4.8794  -4.8122  -4.7044  -4.6203  -4.5885  -4.5163
    -4.2966  -3.7686  -3.5747  -3.5668  -3.4240  -3.1428  -3.1382  -3.0299
    -2.9815  -2.8446  -2.6051  -2.4065  -2.2991  -2.1531  -1.5756  -1.5065
    -1.3578  -0.9087  -0.8795  -0.7864  -0.7611  -0.6513  -0.6201  -0.5561
    -0.3793  -0.2835  -0.1841  -0.0598  -0.0026   0.0632   0.2002   0.2065
     0.2950   0.3829   0.5420   0.6839   0.6871   0.7854   0.8073   0.9413
     1.0340   1.0516   1.1801   1.2196   1.3049   1.3693   1.4642   1.5997
     1.6181   1.7060   1.7346   1.7742   1.8657   1.9249   1.9565   2.0374
     2.0699   2.1675   2.1851   2.2788

          k = 0.2500 0.2500 0.4167 ( 52691 PWs)   bands (ev):

    -8.5707  -7.8014  -7.7734  -7.7520  -7.2155  -7.1299  -6.9807  -6.6218
    -6.5855  -6.4986  -6.2501  -6.2104  -5.9516  -5.7983  -5.7887  -5.5073
    -5.4935  -5.3291  -4.8806  -4.8055  -4.7119  -4.6155  -4.5813  -4.5124
    -4.3185  -3.8010  -3.5672  -3.5530  -3.4452  -3.1451  -3.1242  -3.0451
    -2.9624  -2.8058  -2.5237  -2.4062  -2.3451  -2.1484  -1.5846  -1.5344
    -1.4150  -0.9183  -0.8690  -0.7890  -0.7760  -0.6389  -0.5720  -0.5143
    -0.4317  -0.3135  -0.1492  -0.1137   0.0343   0.1013   0.2006   0.2420
     0.2995   0.3871   0.5374   0.6748   0.7273   0.7838   0.8212   0.8832
     0.9710   1.0595   1.1924   1.2447   1.3294   1.3431   1.4676   1.5831
     1.6375   1.7031   1.7176   1.8360   1.8535   1.9530   1.9930   2.0281
     2.0554   2.1452   2.2257   2.3229

          k = 0.2500 0.4167 0.4167 ( 52669 PWs)   bands (ev):

    -8.5598  -7.8075  -7.7925  -7.7486  -7.2277  -7.1700  -6.9912  -6.5857
    -6.5239  -6.4976  -6.2473  -6.2040  -5.9564  -5.7755  -5.7448  -5.5056
    -5.4809  -5.3155  -4.9657  -4.8430  -4.7673  -4.6525  -4.5783  -4.5248
    -4.3282  -3.7934  -3.5929  -3.5322  -3.3913  -3.1610  -3.0837  -2.9494
    -2.8897  -2.7803  -2.5813  -2.4606  -2.3181  -2.2050  -1.6614  -1.5434
    -1.4462  -0.9578  -0.8512  -0.8235  -0.7623  -0.6509  -0.5120  -0.4934
    -0.3780  -0.3208  -0.1445  -0.0816   0.0252   0.1153   0.1950   0.2921
     0.3753   0.3970   0.5458   0.6582   0.7329   0.7789   0.8377   0.9307
     1.0081   1.0544   1.1508   1.2268   1.2812   1.3055   1.5046   1.5142
     1.5592   1.6085   1.7598   1.7893   1.8301   1.9336   2.0028   2.0454
     2.0978   2.1773   2.2325   2.2842

          k = 0.4167 0.4167 0.4167 ( 52653 PWs)   bands (ev):

    -8.5492  -7.8040  -7.7839  -7.7805  -7.2376  -7.2107  -7.0044  -6.5174
    -6.5022  -6.4915  -6.2488  -6.1915  -5.9435  -5.7472  -5.7067  -5.5121
    -5.4759  -5.3039  -4.9664  -4.9425  -4.8206  -4.6876  -4.6086  -4.5305
    -4.3554  -3.7327  -3.5696  -3.5682  -3.3115  -3.2033  -2.9802  -2.9298
    -2.8666  -2.7616  -2.6226  -2.5208  -2.2683  -2.2632  -1.6551  -1.5795
    -1.5257  -0.9761  -0.8560  -0.7880  -0.7330  -0.6220  -0.5029  -0.4625
    -0.3795  -0.2757  -0.1651  -0.0601  -0.0096   0.1665   0.2163   0.2727
     0.3732   0.5199   0.6286   0.6315   0.7072   0.8154   0.8441   0.8855
     0.9970   1.0814   1.1328   1.1647   1.2471   1.3520   1.3544   1.3797
     1.4765   1.6441   1.7185   1.7896   1.8505   1.8939   1.9710   2.0768
     2.0890   2.1517   2.1822   2.2768

          k = 0.0833-0.0833 0.0833 ( 52665 PWs)   bands (ev):

    -8.6101  -7.7508  -7.7404  -7.7348  -7.1224  -7.0707  -6.9114  -6.7407
    -6.6835  -6.6112  -6.2893  -6.2877  -6.0280  -5.8331  -5.7844  -5.5865
    -5.4850  -5.2367  -4.7846  -4.6561  -4.6230  -4.5102  -4.4868  -4.4370
    -4.3000  -3.8116  -3.7024  -3.5869  -3.3791  -3.3015  -3.1989  -3.0928
    -3.0470  -2.9233  -2.8077  -2.2881  -2.1359  -2.0408  -1.5248  -1.4121
    -1.1981  -0.8816  -0.8350  -0.7805  -0.7471  -0.7446  -0.5673  -0.5477
    -0.5459  -0.4199  -0.1964  -0.0372   0.0067   0.0893   0.1049   0.1857
     0.3051   0.4571   0.5919   0.6848   0.8175   0.8572   0.8844   0.9181
     0.9584   0.9977   1.0508   1.1151   1.1895   1.2713   1.4101   1.4773
     1.5563   1.5953   1.6203   1.7491   1.7633   1.8709   1.9549   2.0795
     2.0810   2.1508   2.2286   2.2807

          k = 0.0833-0.0833 0.2500 ( 52687 PWs)   bands (ev):

    -8.6009  -7.7809  -7.7457  -7.7245  -7.1534  -7.0643  -6.9328  -6.7378
    -6.6810  -6.5479  -6.2767  -6.2569  -5.9993  -5.8423  -5.7841  -5.5926
    -5.4883  -5.3021  -4.7903  -4.6536  -4.6104  -4.4967  -4.4878  -4.4316
    -4.3517  -3.8452  -3.6745  -3.5884  -3.3847  -3.3657  -3.2161  -3.0770
    -3.0358  -2.8767  -2.6826  -2.3238  -2.1272  -2.0259  -1.5376  -1.4688
    -1.2218  -0.9019  -0.8372  -0.7876  -0.7265  -0.7147  -0.6056  -0.5564
    -0.5214  -0.3783  -0.2039  -0.0062   0.0019   0.0534   0.0740   0.2061
     0.2729   0.3948   0.5189   0.6583   0.7294   0.7696   0.8459   0.9381
     0.9623   1.0340   1.1363   1.2420   1.2544   1.3035   1.4761   1.4972
     1.6326   1.6356   1.7455   1.7751   1.8234   1.9183   1.9656   2.0422
     2.1466   2.1826   2.2197   2.2938

          k = 0.2500-0.0833 0.0833 ( 52687 PWs)   bands (ev):

    -8.5997  -7.7904  -7.7320  -7.7312  -7.1369  -7.1084  -6.9232  -6.6966
    -6.6228  -6.6114  -6.2896  -6.2817  -6.0374  -5.7998  -5.7829  -5.5673
    -5.4709  -5.1980  -4.8504  -4.7336  -4.6601  -4.5382  -4.5099  -4.4711
    -4.2833  -3.8474  -3.6748  -3.5994  -3.3204  -3.2629  -3.1276  -3.0663
    -3.0022  -2.8893  -2.7822  -2.3141  -2.1929  -2.0816  -1.6065  -1.3924
    -1.2712  -0.8917  -0.8409  -0.8020  -0.7548  -0.7141  -0.6191  -0.5778
    -0.4550  -0.3916  -0.1816  -0.0028   0.0320   0.0490   0.0775   0.1718
     0.3005   0.4552   0.5762   0.6174   0.7857   0.8778   0.9235   0.9607
     0.9852   1.0313   1.0913   1.1321   1.2429   1.3334   1.4469   1.5248
     1.5816   1.6298   1.7055   1.7116   1.8091   1.8924   1.9664   2.0749
     2.1044   2.1857   2.2726   2.3483

          k =-0.2500-0.0833-0.0833 ( 52687 PWs)   bands (ev):

    -8.5997  -7.7900  -7.7323  -7.7313  -7.1460  -7.0987  -6.9220  -6.6992
    -6.6232  -6.6103  -6.3001  -6.2755  -6.0299  -5.8078  -5.7953  -5.5306
    -5.4748  -5.1950  -4.8576  -4.7365  -4.6482  -4.5716  -4.5403  -4.4842
    -4.2676  -3.7872  -3.6412  -3.5834  -3.3849  -3.2626  -3.1239  -3.0762
    -2.9945  -2.9083  -2.7344  -2.3318  -2.2248  -2.0997  -1.5932  -1.3970
    -1.2463  -0.9179  -0.8530  -0.7856  -0.7522  -0.6992  -0.6432  -0.5950
    -0.4187  -0.3514  -0.2151  -0.0142   0.0136   0.0483   0.1664   0.1852
     0.2804   0.4286   0.5540   0.6362   0.7598   0.8281   0.8731   0.9406
     1.0078   1.0441   1.1463   1.1907   1.2519   1.3851   1.4464   1.4999
     1.5668   1.6447   1.7215   1.7719   1.8049   1.9017   1.9679   1.9973
     2.0680   2.1631   2.3167   2.3345

          k = 0.0833-0.0833 0.4167 ( 52715 PWs)   bands (ev):

    -8.5913  -7.8189  -7.7405  -7.7134  -7.1837  -7.0592  -6.9533  -6.7348
    -6.6784  -6.4930  -6.2483  -6.2255  -5.9717  -5.8514  -5.7840  -5.6016
    -5.4927  -5.3768  -4.7960  -4.6508  -4.5984  -4.4870  -4.4820  -4.4269
    -4.3924  -3.8784  -3.6539  -3.5907  -3.4209  -3.3896  -3.2314  -3.0653
    -3.0155  -2.8356  -2.5561  -2.3570  -2.1205  -2.0132  -1.6446  -1.4316
    -1.2408  -0.9239  -0.8377  -0.8008  -0.7138  -0.6692  -0.6464  -0.5753
    -0.4977  -0.3561  -0.2141  -0.0144   0.0233   0.0353   0.0995   0.2089
     0.2331   0.3316   0.4549   0.5597   0.6962   0.7346   0.8564   0.9606
     0.9691   1.0690   1.1947   1.2791   1.3278   1.3987   1.4574   1.5516
     1.6622   1.6857   1.7440   1.9005   1.9417   1.9450   1.9762   2.0848
     2.1803   2.1880   2.2610   2.3333

          k = 0.4167-0.0833 0.0833 ( 52715 PWs)   bands (ev):

    -8.5887  -7.8329  -7.7226  -7.7211  -7.1572  -7.1407  -6.9294  -6.6750
    -6.6122  -6.5409  -6.2869  -6.2852  -6.0474  -5.7919  -5.7606  -5.5128
    -5.4613  -5.1589  -4.9811  -4.7598  -4.6895  -4.6103  -4.5493  -4.4667
    -4.2665  -3.8506  -3.6319  -3.5935  -3.3362  -3.2321  -3.1615  -2.9850
    -2.8749  -2.8612  -2.7127  -2.3254  -2.3021  -2.1364  -1.7227  -1.3399
    -1.3155  -0.9321  -0.8735  -0.7827  -0.7759  -0.6902  -0.6552  -0.6062
    -0.3914  -0.3152  -0.1857  -0.0378   0.0181   0.0473   0.1202   0.2120
     0.3129   0.3805   0.4884   0.6463   0.7456   0.8393   0.9010   0.9903
     1.0705   1.1158   1.1705   1.2416   1.3040   1.3646   1.4672   1.5163
     1.5596   1.6484   1.7086   1.7916   1.8768   1.9233   1.9842   2.0620
     2.1279   2.2275   2.2981   2.3691

          k =-0.4167-0.0833-0.0833 ( 52715 PWs)   bands (ev):

    -8.5887  -7.8328  -7.7225  -7.7213  -7.1640  -7.1335  -6.9292  -6.6756
    -6.6119  -6.5414  -6.2952  -6.2788  -6.0441  -5.8015  -5.7594  -5.4877
    -5.4704  -5.1578  -4.9825  -4.7645  -4.6808  -4.6320  -4.5575  -4.4745
    -4.2612  -3.8198  -3.6082  -3.6016  -3.3590  -3.2315  -3.1587  -2.9946
    -2.8827  -2.8550  -2.6793  -2.3765  -2.2850  -2.1484  -1.7197  -1.3494
    -1.2905  -0.9398  -0.8733  -0.8055  -0.7551  -0.6838  -0.6672  -0.6087
    -0.3829  -0.2662  -0.2248  -0.0488   0.0239   0.0590   0.1216   0.2138
     0.3130   0.4081   0.4302   0.6923   0.7540   0.7967   0.8932   0.9709
     1.0730   1.1050   1.1923   1.2417   1.3203   1.3941   1.4314   1.5470
     1.6014   1.6656   1.7460   1.8051   1.8421   1.9226   1.9684   2.0155
     2.0861   2.1961   2.2868   2.3419

          k = 0.2500-0.0833 0.2500 ( 52675 PWs)   bands (ev):

    -8.5905  -7.7837  -7.7720  -7.7232  -7.1676  -7.1032  -6.9446  -6.6934
    -6.6204  -6.5490  -6.2739  -6.2517  -6.0083  -5.8084  -5.7802  -5.5683
    -5.4819  -5.2704  -4.8512  -4.7351  -4.6558  -4.5375  -4.5032  -4.4603
    -4.3233  -3.8783  -3.6509  -3.5937  -3.3668  -3.2765  -3.1097  -3.0802
    -2.9852  -2.8531  -2.6728  -2.3562  -2.1890  -2.0769  -1.5942  -1.4742
    -1.2893  -0.9053  -0.8652  -0.8082  -0.7507  -0.6675  -0.6274  -0.5351
    -0.4818  -0.3259  -0.2080  -0.0057   0.0116   0.0590   0.0724   0.1726
     0.2979   0.4354   0.5489   0.6379   0.7468   0.8085   0.8845   0.9368
     0.9948   1.0562   1.1420   1.1887   1.2713   1.3075   1.4774   1.5198
     1.6054   1.6754   1.7287   1.7713   1.8798   1.9294   2.0212   2.0586
     2.1169   2.2143   2.3038   2.3262

          k = 0.2500-0.2500 0.0833 ( 52675 PWs)   bands (ev):

    -8.5895  -7.7874  -7.7692  -7.7227  -7.1519  -7.1440  -6.9365  -6.6237
    -6.6134  -6.5915  -6.2894  -6.2776  -6.0370  -5.7685  -5.7550  -5.5768
    -5.4603  -5.1708  -4.8574  -4.8307  -4.6993  -4.5595  -4.5490  -4.4955
    -4.2953  -3.8484  -3.6767  -3.5887  -3.2730  -3.1552  -3.1359  -3.0193
    -2.9995  -2.8441  -2.7945  -2.3696  -2.1739  -2.1182  -1.6461  -1.3830
    -1.3766  -0.9072  -0.8522  -0.8015  -0.7584  -0.6862  -0.6127  -0.5589
    -0.4449  -0.3181  -0.1332  -0.0408  -0.0074   0.0623   0.0818   0.1840
     0.3402   0.4160   0.5340   0.5831   0.7351   0.8753   0.9029   0.9492
     1.0188   1.0188   1.1381   1.2074   1.2842   1.3276   1.4728   1.5330
     1.5883   1.6891   1.7035   1.7279   1.7684   1.9048   1.9644   2.0831
     2.1109   2.2887   2.3607   2.3763

          k =-0.2500-0.2500-0.0833 ( 52675 PWs)   bands (ev):

    -8.5896  -7.7839  -7.7729  -7.7224  -7.1733  -7.1211  -6.9358  -6.6287
    -6.6123  -6.5899  -6.3066  -6.2682  -6.0236  -5.7948  -5.7730  -5.4888
    -5.4754  -5.1655  -4.8779  -4.8184  -4.6975  -4.6232  -4.5960  -4.5208
    -4.2647  -3.7345  -3.6114  -3.5681  -3.3964  -3.1485  -3.1364  -3.0182
    -2.9952  -2.8886  -2.6896  -2.3940  -2.2532  -2.1593  -1.6112  -1.4582
    -1.2657  -0.9253  -0.8981  -0.7474  -0.7473  -0.6822  -0.6675  -0.5932
    -0.3249  -0.2717  -0.2252  -0.0111  -0.0101   0.0388   0.1822   0.1830
     0.2835   0.3790   0.5117   0.6751   0.6944   0.7826   0.8279   0.9474
     1.0481   1.1018   1.1632   1.2250   1.3033   1.3751   1.4721   1.5612
     1.6208   1.6877   1.7626   1.7870   1.8432   1.8886   1.8950   1.9950
     2.1172   2.1271   2.2068   2.3440

          k = 0.2500-0.0833 0.4167 ( 52682 PWs)   bands (ev):

    -8.5809  -7.8102  -7.7768  -7.7139  -7.1976  -7.0990  -6.9652  -6.6902
    -6.6184  -6.4952  -6.2435  -6.2198  -5.9806  -5.8169  -5.7771  -5.5686
    -5.4965  -5.3529  -4.8521  -4.7358  -4.6532  -4.5334  -4.4979  -4.4490
    -4.3533  -3.9092  -3.6399  -3.5837  -3.4100  -3.2851  -3.0964  -3.0882
    -2.9657  -2.8198  -2.5579  -2.3994  -2.1861  -2.0742  -1.6410  -1.5018
    -1.2965  -0.9269  -0.8803  -0.8176  -0.7381  -0.6687  -0.5946  -0.5357
    -0.4692  -0.2902  -0.2417   0.0074   0.0223   0.0624   0.0968   0.1578
     0.2933   0.3963   0.5239   0.6001   0.6631   0.8188   0.8873   0.9210
     1.0263   1.0804   1.2050   1.2230   1.2645   1.3497   1.4202   1.5347
     1.6455   1.6841   1.7403   1.8475   1.9198   2.0028   2.0337   2.1088
     2.1606   2.2140   2.2761   2.3129

          k = 0.4167-0.2500 0.0833 ( 52682 PWs)   bands (ev):

    -8.5788  -7.8218  -7.7655  -7.7133  -7.1927  -7.1538  -6.9455  -6.6168
    -6.5904  -6.5199  -6.2962  -6.2740  -6.0362  -5.7579  -5.7269  -5.5302
    -5.4523  -5.1413  -4.9738  -4.8471  -4.7389  -4.6418  -4.5594  -4.5262
    -4.2971  -3.7857  -3.6484  -3.5794  -3.2764  -3.1933  -3.0868  -3.0012
    -2.8790  -2.8311  -2.7473  -2.3926  -2.2318  -2.1790  -1.7212  -1.4500
    -1.3272  -0.9472  -0.8527  -0.7975  -0.7604  -0.6727  -0.6400  -0.5707
    -0.3624  -0.2308  -0.1273  -0.0398  -0.0167   0.0500   0.1240   0.2200
     0.3331   0.3732   0.4595   0.5674   0.6849   0.8133   0.8742   0.9528
     1.0277   1.0601   1.1993   1.2759   1.3509   1.4040   1.4397   1.5098
     1.5985   1.6727   1.7192   1.8047   1.8499   1.9093   1.9568   2.1196
     2.1657   2.2434   2.2906   2.3274

          k =-0.4167-0.2500-0.0833 ( 52682 PWs)   bands (ev):

    -8.5788  -7.8214  -7.7660  -7.7131  -7.1991  -7.1467  -6.9455  -6.6154
    -6.5921  -6.5204  -6.3045  -6.2691  -6.0303  -5.7762  -5.7300  -5.4789
    -5.4649  -5.1400  -4.9768  -4.8470  -4.7444  -4.6621  -4.5889  -4.5375
    -4.2811  -3.7270  -3.6153  -3.5810  -3.3376  -3.1887  -3.0688  -3.0169
    -2.8699  -2.8540  -2.6953  -2.3944  -2.2797  -2.2056  -1.7095  -1.4714
    -1.2802  -0.9438  -0.8812  -0.7894  -0.7471  -0.6769  -0.6537  -0.5822
    -0.3098  -0.2022  -0.1499  -0.0578  -0.0108   0.0550   0.1132   0.2088
     0.3367   0.3833   0.4299   0.6195   0.6799   0.7647   0.8289   0.9986
     1.0444   1.0818   1.2239   1.2255   1.3434   1.3830   1.4829   1.5921
     1.6070   1.6720   1.7594   1.8251   1.8591   1.9257   1.9522   2.0458
     2.1139   2.1312   2.1820   2.3808

          k =-0.0833 0.4167 0.2500 ( 52682 PWs)   bands (ev):

    -8.5795  -7.8258  -7.7626  -7.7138  -7.1861  -7.1368  -6.9523  -6.6705
    -6.5582  -6.5321  -6.2713  -6.2535  -6.0183  -5.7823  -5.7685  -5.5187
    -5.4738  -5.2397  -4.9760  -4.7636  -4.6973  -4.6095  -4.5383  -4.4537
    -4.2970  -3.8837  -3.6178  -3.5692  -3.3740  -3.2422  -3.1448  -2.9695
    -2.8696  -2.8341  -2.6287  -2.3740  -2.3060  -2.1360  -1.7096  -1.4451
    -1.3200  -0.9442  -0.8868  -0.8040  -0.7620  -0.6902  -0.6100  -0.5331
    -0.3998  -0.2762  -0.2017  -0.0671  -0.0114   0.0403   0.1549   0.2039
     0.3532   0.4187   0.5160   0.6595   0.7302   0.8131   0.8946   0.9371
     1.0452   1.1387   1.1700   1.2405   1.2862   1.3320   1.4551   1.5159
     1.5834   1.6293   1.6851   1.8088   1.8996   1.9979   2.0244   2.0808
     2.1389   2.2289   2.2873   2.3468

          k =-0.0833-0.4167-0.2500 ( 52682 PWs)   bands (ev):

    -8.5795  -7.8257  -7.7625  -7.7139  -7.1894  -7.1330  -6.9524  -6.6710
    -6.5584  -6.5318  -6.2747  -6.2524  -6.0145  -5.7932  -5.7661  -5.4963
    -5.4809  -5.2383  -4.9777  -4.7673  -4.6929  -4.6275  -4.5456  -4.4627
    -4.2918  -3.8549  -3.6029  -3.5643  -3.3943  -3.2417  -3.1439  -2.9811
    -2.8652  -2.8376  -2.5940  -2.3908  -2.3300  -2.1443  -1.7086  -1.4341
    -1.3212  -0.9495  -0.8709  -0.8114  -0.7675  -0.6895  -0.6079  -0.5400
    -0.3859  -0.2606  -0.2208  -0.0746  -0.0100   0.0484   0.1680   0.2194
     0.3451   0.4075   0.4862   0.6929   0.7490   0.8040   0.8259   0.9571
     1.0684   1.1392   1.1637   1.2542   1.2901   1.3478   1.4293   1.5326
     1.6226   1.6467   1.7279   1.8034   1.8629   1.9206   2.0474   2.0777
     2.1266   2.2091   2.2599   2.3393

          k = 0.4167-0.0833 0.4167 ( 52738 PWs)   bands (ev):

    -8.5698  -7.8185  -7.8008  -7.7049  -7.2155  -7.1328  -6.9742  -6.6663
    -6.5457  -6.4913  -6.2392  -6.2212  -5.9909  -5.7763  -5.7701  -5.5250
    -5.4894  -5.3310  -4.9703  -4.7674  -4.7062  -4.6059  -4.5284  -4.4398
    -4.3189  -3.9172  -3.6159  -3.5419  -3.4087  -3.2499  -3.1291  -2.9450
    -2.8774  -2.8014  -2.5394  -2.4260  -2.3054  -2.1363  -1.6984  -1.5542
    -1.3103  -0.9602  -0.8974  -0.8179  -0.7544  -0.6999  -0.5521  -0.4687
    -0.4295  -0.2930  -0.1826  -0.0510  -0.0101   0.0419   0.1364   0.2305
     0.3870   0.4316   0.5358   0.6554   0.6991   0.7815   0.8626   0.9359
     1.0413   1.1207   1.1870   1.2659   1.2872   1.3780   1.4147   1.4943
     1.5349   1.6352   1.6769   1.8687   1.9142   1.9680   2.0751   2.1190
     2.1517   2.2346   2.2442   2.3295

          k = 0.4167-0.4167 0.0833 ( 52738 PWs)   bands (ev):

    -8.5683  -7.8155  -7.8003  -7.7043  -7.2319  -7.1638  -6.9579  -6.6176
    -6.5126  -6.4958  -6.3037  -6.2684  -6.0307  -5.7252  -5.6909  -5.5121
    -5.4524  -5.1226  -4.9705  -4.9616  -4.7882  -4.6941  -4.6103  -4.5153
    -4.3246  -3.6967  -3.6418  -3.5714  -3.2455  -3.1966  -3.0968  -2.9389
    -2.8461  -2.7900  -2.7638  -2.4164  -2.2458  -2.2205  -1.7383  -1.5669
    -1.2891  -0.9786  -0.8103  -0.7591  -0.7432  -0.6764  -0.6568  -0.5939
    -0.2921  -0.1775  -0.1160  -0.0335  -0.0188   0.1371   0.1405   0.2132
     0.3181   0.3511   0.4155   0.5218   0.6795   0.7126   0.8664   0.8866
     1.0038   1.1276   1.1847   1.2801   1.2936   1.3885   1.4841   1.5330
     1.6608   1.6981   1.7500   1.7920   1.8140   1.9866   2.0203   2.0557
     2.1361   2.1455   2.2211   2.3623

          k =-0.4167-0.4167-0.0833 ( 52738 PWs)   bands (ev):

    -8.5683  -7.8147  -7.8012  -7.7042  -7.2338  -7.1615  -6.9580  -6.6170
    -6.5140  -6.4954  -6.3076  -6.2661  -6.0281  -5.7357  -5.6939  -5.4759
    -5.4650  -5.1226  -4.9756  -4.9573  -4.7967  -4.6977  -4.6168  -4.5330
    -4.3132  -3.6643  -3.6254  -3.5744  -3.2634  -3.2318  -3.0682  -2.9378
    -2.8432  -2.8193  -2.7289  -2.4024  -2.2641  -2.2506  -1.7296  -1.5782
    -1.2680  -0.9761  -0.8041  -0.7863  -0.7172  -0.6816  -0.6744  -0.5914
    -0.2666  -0.1556  -0.1170  -0.0441  -0.0245   0.1048   0.1361   0.2278
     0.3097   0.3330   0.4667   0.5292   0.6342   0.7050   0.8205   0.9596
     1.0802   1.1064   1.1894   1.1947   1.3136   1.4080   1.4279   1.6274
     1.6421   1.6913   1.7803   1.7815   1.8792   1.9520   1.9825   2.0663
     2.0934   2.1393   2.1913   2.3469

          k = 0.2500-0.2500 0.2500 ( 52677 PWs)   bands (ev):

    -8.5803  -7.7823  -7.7634  -7.7592  -7.1750  -7.1475  -6.9579  -6.6197
    -6.5891  -6.5530  -6.2754  -6.2422  -6.0045  -5.7752  -5.7584  -5.5740
    -5.4744  -5.2478  -4.8587  -4.8281  -4.7007  -4.5578  -4.5405  -4.4924
    -4.3277  -3.8743  -3.6617  -3.5771  -3.3195  -3.1413  -3.1360  -3.0318
    -2.9688  -2.8200  -2.7000  -2.4157  -2.1701  -2.1244  -1.6156  -1.4798
    -1.3863  -0.9068  -0.8908  -0.8232  -0.7410  -0.6388  -0.5830  -0.5553
    -0.4614  -0.2316  -0.1799  -0.0896  -0.0145   0.0915   0.1232   0.1783
     0.3294   0.4389   0.5554   0.6156   0.6974   0.8321   0.9272   0.9418
     1.0050   1.0127   1.1545   1.2109   1.2185   1.3106   1.4572   1.5281
     1.6439   1.7255   1.7344   1.7987   1.8094   1.9117   1.9631   2.0172
     2.1079   2.2923   2.3155   2.3847

          k = 0.2500-0.2500 0.4167 ( 52691 PWs)   bands (ev):

    -8.5706  -7.8017  -7.7769  -7.7483  -7.2051  -7.1440  -6.9784  -6.6167
    -6.5867  -6.5014  -6.2429  -6.2075  -5.9729  -5.7823  -5.7618  -5.5676
    -5.4938  -5.3361  -4.8603  -4.8247  -4.7035  -4.5518  -4.5326  -4.4920
    -4.3495  -3.9005  -3.6571  -3.5630  -3.3603  -3.1421  -3.1191  -3.0466
    -2.9377  -2.7957  -2.5993  -2.4616  -2.1676  -2.1325  -1.6322  -1.5256
    -1.3938  -0.9270  -0.9064  -0.8438  -0.7268  -0.6003  -0.5845  -0.5460
    -0.4376  -0.2376  -0.2244  -0.0440  -0.0084   0.1208   0.1710   0.1739
     0.3099   0.4256   0.5594   0.6431   0.6499   0.7977   0.9018   0.9719
     0.9933   1.0312   1.1946   1.2078   1.2968   1.3050   1.3318   1.5097
     1.6133   1.7585   1.7680   1.7862   1.8409   1.9913   2.0214   2.0359
     2.1172   2.2050   2.2973   2.3929

          k = 0.4167-0.2500 0.2500 ( 52691 PWs)   bands (ev):

    -8.5695  -7.8151  -7.7575  -7.7537  -7.1970  -7.1760  -6.9682  -6.5884
    -6.5559  -6.5170  -6.2794  -6.2383  -6.0007  -5.7579  -5.7341  -5.5345
    -5.4659  -5.2241  -4.9685  -4.8466  -4.7481  -4.6352  -4.5573  -4.5198
    -4.3250  -3.8130  -3.6341  -3.5617  -3.3109  -3.1767  -3.0916  -2.9641
    -2.8854  -2.8021  -2.6847  -2.4429  -2.2350  -2.1855  -1.6932  -1.4589
    -1.4321  -0.9497  -0.8774  -0.8084  -0.7484  -0.6490  -0.5730  -0.5443
    -0.3950  -0.1941  -0.1380  -0.1053  -0.0194   0.0877   0.1659   0.2234
     0.3517   0.4281   0.5196   0.5790   0.6959   0.8205   0.8678   0.9377
     1.0010   1.0616   1.1640   1.2435   1.2969   1.3778   1.4244   1.4955
     1.6237   1.6894   1.7251   1.7960   1.8559   1.8861   1.9682   2.0729
     2.1223   2.2197   2.2812   2.3187

          k =-0.4167-0.2500-0.2500 ( 52691 PWs)   bands (ev):

    -8.5695  -7.8145  -7.7580  -7.7537  -7.2074  -7.1645  -6.9688  -6.5896
    -6.5550  -6.5172  -6.2844  -6.2375  -5.9933  -5.7762  -5.7372  -5.4910
    -5.4727  -5.2221  -4.9717  -4.8450  -4.7556  -4.6575  -4.5841  -4.5308
    -4.3094  -3.7611  -3.5974  -3.5573  -3.3644  -3.1760  -3.0784  -2.9856
    -2.8780  -2.8151  -2.6381  -2.4247  -2.3073  -2.2049  -1.6853  -1.4804
    -1.3965  -0.9498  -0.8524  -0.8032  -0.7669  -0.6636  -0.5813  -0.5425
    -0.3433  -0.2589  -0.0991  -0.0856  -0.0264   0.0692   0.1735   0.2431
     0.3559   0.3900   0.5090   0.6123   0.7054   0.7810   0.8243   0.9894
     1.0121   1.0707   1.1733   1.2345   1.2971   1.3628   1.5021   1.5481
     1.5977   1.6544   1.7386   1.8064   1.8630   1.8959   1.9779   2.0502
     2.1140   2.1570   2.1976   2.3032

          k = 0.4167-0.2500 0.4167 ( 52669 PWs)   bands (ev):

    -8.5598  -7.8082  -7.7926  -7.7478  -7.2205  -7.1788  -6.9900  -6.5845
    -6.5233  -6.4991  -6.2441  -6.2026  -5.9656  -5.7571  -5.7416  -5.5383
    -5.4821  -5.3183  -4.9627  -4.8460  -4.7578  -4.6288  -4.5529  -4.5150
    -4.3430  -3.8408  -3.6299  -3.5427  -3.3437  -3.1600  -3.0938  -2.9230
    -2.8974  -2.7761  -2.6104  -2.4949  -2.2367  -2.1919  -1.6673  -1.5575
    -1.4364  -0.9558  -0.9024  -0.8269  -0.7332  -0.6357  -0.5121  -0.4980
    -0.4221  -0.2544  -0.1771  -0.0565  -0.0007   0.1452   0.1696   0.2539
     0.3729   0.4224   0.5768   0.6199   0.7307   0.8262   0.8662   0.8958
     0.9636   1.0496   1.1577   1.2326   1.2948   1.3220   1.3974   1.5160
     1.5657   1.6101   1.6915   1.8356   1.8692   1.9083   2.0123   2.0449
     2.1349   2.2079   2.2511   2.3310

          k = 0.4167-0.4167 0.2500 ( 52669 PWs)   bands (ev):

    -8.5590  -7.8103  -7.7904  -7.7453  -7.2277  -7.1947  -6.9813  -6.5593
    -6.5093  -6.4937  -6.2857  -6.2295  -5.9900  -5.7306  -5.6972  -5.5202
    -5.4652  -5.2078  -4.9662  -4.9552  -4.8001  -4.6852  -4.6074  -4.5153
    -4.3509  -3.7244  -3.6249  -3.5604  -3.2538  -3.2075  -3.0503  -2.9230
    -2.8560  -2.7740  -2.7105  -2.4729  -2.2534  -2.2244  -1.7023  -1.5638
    -1.4198  -0.9767  -0.8483  -0.7717  -0.7252  -0.6326  -0.5902  -0.5459
    -0.3379  -0.1760  -0.1207  -0.1053  -0.0261   0.1832   0.1939   0.2209
     0.3599   0.3932   0.5180   0.5678   0.6942   0.7589   0.8457   0.9165
     0.9736   1.0905   1.1314   1.2715   1.2941   1.3426   1.4226   1.4929
     1.6397   1.7005   1.7410   1.7706   1.7990   1.8458   1.9454   2.0710
     2.1408   2.1456   2.2548   2.2984

          k =-0.4167-0.4167-0.2500 ( 52669 PWs)   bands (ev):

    -8.5590  -7.8094  -7.7913  -7.7452  -7.2318  -7.1902  -6.9817  -6.5586
    -6.5104  -6.4934  -6.2879  -6.2291  -5.9866  -5.7409  -5.7002  -5.4927
    -5.4704  -5.2073  -4.9715  -4.9500  -4.8080  -4.6925  -4.6126  -4.5320
    -4.3396  -3.7002  -3.5925  -3.5703  -3.2847  -3.2181  -3.0303  -2.9292
    -2.8544  -2.7897  -2.6852  -2.4578  -2.2657  -2.2596  -1.6944  -1.5781
    -1.4023  -0.9759  -0.8218  -0.7728  -0.7396  -0.6519  -0.5964  -0.5349
    -0.3097  -0.2200  -0.1006  -0.0766  -0.0352   0.1436   0.1838   0.2592
     0.3663   0.3843   0.5394   0.5526   0.6831   0.7283   0.8472   0.9332
     1.0267   1.1024   1.1743   1.1920   1.2363   1.4044   1.4249   1.5346
     1.6067   1.6592   1.7588   1.7888   1.7919   1.8881   1.9599   2.0921
     2.1120   2.1543   2.1815   2.2811

          k = 0.4167-0.4167 0.4167 ( 52653 PWs)   bands (ev):

    -8.5492  -7.8049  -7.7838  -7.7798  -7.2249  -7.2240  -7.0038  -6.5173
    -6.5020  -6.4917  -6.2473  -6.1909  -5.9479  -5.7371  -5.7035  -5.5307
    -5.4781  -5.3047  -4.9617  -4.9483  -4.8126  -4.6776  -4.6041  -4.5155
    -4.3661  -3.7535  -3.6156  -3.5487  -3.2799  -3.1993  -3.0048  -2.9102
    -2.8676  -2.7567  -2.6367  -2.5360  -2.2608  -2.2275  -1.6637  -1.5615
    -1.5407  -0.9750  -0.8856  -0.7967  -0.7104  -0.6060  -0.4995  -0.4711
    -0.4031  -0.2345  -0.1821  -0.0634  -0.0211   0.1998   0.2326   0.2410
     0.3499   0.4839   0.6607   0.6771   0.7212   0.7874   0.8442   0.9399
     0.9415   1.0390   1.0591   1.2268   1.2750   1.3161   1.3437   1.4318
     1.4912   1.6559   1.6620   1.7930   1.8560   1.8754   1.9454   2.0520
     2.0989   2.2022   2.2305   2.2507

     highest occupied level (ev):     2.3929

!    total energy              =    -327.03715908 Ry
     estimated scf accuracy    <       0.00000084 Ry

     The total energy is the sum of the following terms:
     one-electron contribution =     -81.48816924 Ry
     hartree contribution      =      90.16631235 Ry
     xc contribution           =     -94.38428425 Ry
     ewald contribution        =    -241.33101794 Ry

     convergence has been achieved in  35 iterations

     Forces acting on atoms (cartesian axes, Ry/au):

     atom    1 type  1   force =    -0.00161909   -0.00161909   -0.00746215
     atom    2 type  1   force =    -0.01271776    0.01271776    0.00052321
     atom    3 type  1   force =     0.01271776   -0.01271776    0.00052321
     atom    4 type  1   force =     0.00161909    0.00161909   -0.00746215
     atom    5 type  1   force =    -0.00168014   -0.00168014   -0.00487217
     atom    6 type  1   force =    -0.00653554    0.00653554    0.00096246
     atom    7 type  1   force =     0.00653554   -0.00653554    0.00096246
     atom    8 type  1   force =     0.00168014    0.00168014   -0.00487217
     atom    9 type  1   force =     0.00000000    0.00000000   -0.02939708
     atom   10 type  1   force =     0.00000000    0.00000000    0.00330786
     atom   11 type  1   force =     0.00137611   -0.00063929   -0.00083223
     atom   12 type  1   force =    -0.00137611    0.00063929   -0.00083223
     atom   13 type  1   force =     0.00823362    0.01127442    0.01921647
     atom   14 type  1   force =    -0.00823362   -0.01127442    0.01921647
     atom   15 type  1   force =    -0.00063929    0.00137611   -0.00083223
     atom   16 type  1   force =     0.00063929   -0.00137611   -0.00083223
     atom   17 type  1   force =     0.01127442    0.00823362    0.01921647
     atom   18 type  1   force =    -0.01127442   -0.00823362    0.01921647
     atom   19 type  1   force =    -0.00409686   -0.00409686   -0.00765721
     atom   20 type  1   force =     0.01113167   -0.02271715    0.00320053
     atom   21 type  1   force =    -0.02271715    0.01113167    0.00320053
     atom   22 type  1   force =    -0.00522252   -0.00522252    0.01071411
     atom   23 type  1   force =    -0.00238103   -0.00238103   -0.00228927
     atom   24 type  1   force =     0.02323571    0.00735936   -0.00519628
     atom   25 type  1   force =     0.00735936    0.02323571   -0.00519628
     atom   26 type  1   force =     0.01084693    0.01084693   -0.00534776
     atom   27 type  1   force =     0.00522252    0.00522252    0.01071411
     atom   28 type  1   force =     0.02271715   -0.01113167    0.00320053
     atom   29 type  1   force =    -0.01113167    0.02271715    0.00320053
     atom   30 type  1   force =     0.00409686    0.00409686   -0.00765721
     atom   31 type  1   force =    -0.01084693   -0.01084693   -0.00534776
     atom   32 type  1   force =    -0.00735936   -0.02323571   -0.00519628
     atom   33 type  1   force =    -0.02323571   -0.00735936   -0.00519628
     atom   34 type  1   force =     0.00238103    0.00238103   -0.00228927
     atom   35 type  1   force =    -0.00627894   -0.02621356    0.00171478
     atom   36 type  1   force =     0.01238562   -0.01238562   -0.01062397
     atom   37 type  1   force =    -0.00265946    0.00265946    0.00289083
     atom   38 type  1   force =     0.02621356    0.00627894    0.00171478
     atom   39 type  1   force =    -0.02621356   -0.00627894    0.00171478
     atom   40 type  1   force =     0.00265946   -0.00265946    0.00289083
     atom   41 type  1   force =    -0.01238562    0.01238562   -0.01062397
     atom   42 type  1   force =     0.00627894    0.02621356    0.00171478

     Total force =     0.118812     Total SCF correction =     0.001240


     Computing stress (Cartesian axis) and pressure

          total   stress  (Ry/bohr**3)                   (kbar)     P=      -34.02
  -0.00024615   0.00000307   0.00000000          -36.21        0.45        0.00
   0.00000307  -0.00024615   0.00000000            0.45      -36.21        0.00
   0.00000000   0.00000000  -0.00020141            0.00        0.00      -29.63


     Writing output data file ./Si64.save/

     init_run     :     27.54s CPU     58.56s WALL (       1 calls)
     electrons    :   8524.43s CPU  18036.81s WALL (       1 calls)
     forces       :     17.40s CPU     47.65s WALL (       1 calls)
     stress       :     16.60s CPU     24.16s WALL (       1 calls)

     Called by init_run:
     wfcinit      :     27.26s CPU     58.25s WALL (       1 calls)
     potinit      :      0.02s CPU      0.04s WALL (       1 calls)
     hinit0       :      0.05s CPU      0.05s WALL (       1 calls)

     Called by electrons:
     c_bands      :   8473.18s CPU  17983.13s WALL (      36 calls)
     sum_band     :     46.97s CPU     48.41s WALL (      36 calls)
     v_of_rho     :      0.99s CPU      1.30s WALL (      36 calls)
     mix_rho      :      3.20s CPU      3.80s WALL (      36 calls)

     Called by c_bands:
     init_us_2    :      4.34s CPU      6.79s WALL (    2700 calls)
     cegterg      :   8351.81s CPU  17724.24s WALL (    1296 calls)

     Called by *egterg:
     cdiaghg      :   2338.30s CPU   3093.81s WALL (   11998 calls)
     h_psi        :   2156.93s CPU   5645.72s WALL (   12070 calls)
     g_psi        :      1.10s CPU      1.96s WALL (   10738 calls)

     Called by h_psi:
     h_psi:calbec :   1395.94s CPU   3747.69s WALL (   12070 calls)
     vloc_psi     :    510.76s CPU    742.01s WALL (   12070 calls)
     add_vuspsi   :    248.17s CPU   1146.12s WALL (   12070 calls)

     General routines
     calbec       :   1418.22s CPU   3797.71s WALL (   12250 calls)
     fft          :      0.68s CPU      0.91s WALL (     368 calls)
     ffts         :      0.03s CPU      0.03s WALL (      36 calls)
     fftw         :    531.74s CPU    752.61s WALL (  721654 calls)

     Parallel routines
     fft_scatt_xy :     34.38s CPU     36.83s WALL (  722058 calls)
     fft_scatt_yz :    390.41s CPU    585.62s WALL (  722058 calls)

     PWSCF        :      2h23m CPU      5h 2m WALL


   This run was terminated on:  18: 4: 4  24Feb2022            

=------------------------------------------------------------------------------=
   JOB DONE.
=------------------------------------------------------------------------------=
