
     Program PWSCF v.6.7MaX starts on 23Feb2022 at 17:50: 1 

     This program is part of the open-source Quantum ESPRESSO suite
     for quantum simulation of materials; please cite
         "P. Giannozzi et al., J. Phys.:Condens. Matter 21 395502 (2009);
         "P. Giannozzi et al., J. Phys.:Condens. Matter 29 465901 (2017);
          URL http://www.quantum-espresso.org", 
     in publications or presentations arising from this work. More details at
     http://www.quantum-espresso.org/quote

     Parallel version (MPI), running on    36 processors

     MPI processes distributed on     1 nodes
     R & G space division:  proc/nbgrp/npool/nimage =      36
     Waiting for input...
     Reading input from standard input

     Current dimensions of program PWSCF are:
     Max number of different atomic species (ntypx) = 10
     Max number of k-points (npk) =  40000
     Max angular momentum in pseudopotentials (lmaxx) =  3

     Subspace diagonalization in iterative solution of the eigenvalue problem:
     a serial algorithm will be used

     Message from routine setup:
     using ibrav=0 with symmetry is DISCOURAGED, use correct ibrav instead

     Parallelization info
     --------------------
     sticks:   dense  smooth     PW     G-vecs:    dense   smooth      PW
     Min          75      75     20                 2955     2955     428
     Max          76      76     21                 2960     2960     433
     Sum        2725    2725    749               106431   106431   15515



     bravais-lattice index     =            0
     lattice parameter (alat)  =      20.6660  a.u.
     unit-cell volume          =    8826.0878 (a.u.)^3
     number of atoms/cell      =           42
     number of atomic types    =            1
     number of electrons       =       168.00
     number of Kohn-Sham states=           84
     kinetic-energy cutoff     =      20.0000  Ry
     charge density cutoff     =      80.0000  Ry
     scf convergence threshold =      1.0E-06
     mixing beta               =       0.7000
     number of iterations used =            8  plain     mixing
     Exchange-correlation=  SLA  PW   PBE  PBE
                           (   1   4   3   4   0   0   0)

     celldm(1)=  20.665984  celldm(2)=   0.000000  celldm(3)=   0.000000
     celldm(4)=   0.000000  celldm(5)=   0.000000  celldm(6)=   0.000000

     crystal axes: (cart. coord. in units of alat)
               a(1) = (   1.000000   0.000000   0.000000 )  
               a(2) = (   0.000000   1.000000   0.000000 )  
               a(3) = (   0.000000   0.000000   1.000000 )  

     reciprocal axes: (cart. coord. in units 2 pi/alat)
               b(1) = (  1.000000  0.000000  0.000000 )  
               b(2) = (  0.000000  1.000000  0.000000 )  
               b(3) = (  0.000000  0.000000  1.000000 )  


     PseudoPot. # 1 for Si read from file:
     ./Si.pbe-rrkj.UPF
     MD5 check sum: cf7ab5690cd9a85b22c4813f7e365554
     Pseudo is Norm-conserving, Zval =  4.0
     Generated by new atomic code, or converted to UPF format
     Using radial grid of  883 points,  3 beta functions with: 
                l(1) =   0
                l(2) =   0
                l(3) =   1

     atomic species   valence    mass     pseudopotential
        Si             4.00    28.08600     Si( 1.00)

      4 Sym. Ops. (no inversion) found



   Cartesian axes

     site n.     atom                  positions (alat units)
         1           Si  tau(   1) = (   0.2500000   0.2500000   0.0000000  )
         2           Si  tau(   2) = (   0.7500000   0.2500000   0.0000000  )
         3           Si  tau(   3) = (   0.2500000   0.7500000   0.0000000  )
         4           Si  tau(   4) = (   0.7500000   0.7500000   0.0000000  )
         5           Si  tau(   5) = (   0.2500000   0.2500000   0.5000000  )
         6           Si  tau(   6) = (   0.7500000   0.2500000   0.5000000  )
         7           Si  tau(   7) = (   0.2500000   0.7500000   0.5000000  )
         8           Si  tau(   8) = (   0.7500000   0.7500000   0.5000000  )
         9           Si  tau(   9) = (   0.5000000   0.5000000   0.0000000  )
        10           Si  tau(  10) = (   0.5000000   0.5000000   0.5000000  )
        11           Si  tau(  11) = (   0.2500000   0.5000000   0.2500000  )
        12           Si  tau(  12) = (   0.7500000   0.5000000   0.2500000  )
        13           Si  tau(  13) = (   0.2500000   0.5000000   0.7500000  )
        14           Si  tau(  14) = (   0.7500000   0.5000000   0.7500000  )
        15           Si  tau(  15) = (   0.5000000   0.2500000   0.2500000  )
        16           Si  tau(  16) = (   0.5000000   0.7500000   0.2500000  )
        17           Si  tau(  17) = (   0.5000000   0.2500000   0.7500000  )
        18           Si  tau(  18) = (   0.5000000   0.7500000   0.7500000  )
        19           Si  tau(  19) = (   0.3750000   0.3750000   0.1250000  )
        20           Si  tau(  20) = (   0.8750000   0.3750000   0.1250000  )
        21           Si  tau(  21) = (   0.3750000   0.8750000   0.1250000  )
        22           Si  tau(  22) = (   0.8750000   0.8750000   0.1250000  )
        23           Si  tau(  23) = (   0.3750000   0.3750000   0.6250000  )
        24           Si  tau(  24) = (   0.8750000   0.3750000   0.6250000  )
        25           Si  tau(  25) = (   0.3750000   0.8750000   0.6250000  )
        26           Si  tau(  26) = (   0.8750000   0.8750000   0.6250000  )
        27           Si  tau(  27) = (   0.1250000   0.1250000   0.1250000  )
        28           Si  tau(  28) = (   0.6250000   0.1250000   0.1250000  )
        29           Si  tau(  29) = (   0.1250000   0.6250000   0.1250000  )
        30           Si  tau(  30) = (   0.6250000   0.6250000   0.1250000  )
        31           Si  tau(  31) = (   0.1250000   0.1250000   0.6250000  )
        32           Si  tau(  32) = (   0.6250000   0.1250000   0.6250000  )
        33           Si  tau(  33) = (   0.1250000   0.6250000   0.6250000  )
        34           Si  tau(  34) = (   0.6250000   0.6250000   0.6250000  )
        35           Si  tau(  35) = (   0.3750000   0.1250000   0.3750000  )
        36           Si  tau(  36) = (   0.8750000   0.1250000   0.3750000  )
        37           Si  tau(  37) = (   0.3750000   0.6250000   0.3750000  )
        38           Si  tau(  38) = (   0.8750000   0.6250000   0.3750000  )
        39           Si  tau(  39) = (   0.1250000   0.3750000   0.3750000  )
        40           Si  tau(  40) = (   0.6250000   0.3750000   0.3750000  )
        41           Si  tau(  41) = (   0.1250000   0.8750000   0.3750000  )
        42           Si  tau(  42) = (   0.6250000   0.8750000   0.3750000  )

     number of k points=    36
                       cart. coord. in units 2pi/alat
        k(    1) = (   0.0833333   0.0833333   0.0833333), wk =   0.0370370
        k(    2) = (   0.0833333   0.0833333   0.2500000), wk =   0.0370370
        k(    3) = (   0.0833333   0.0833333   0.4166667), wk =   0.0370370
        k(    4) = (   0.0833333   0.2500000   0.2500000), wk =   0.0740741
        k(    5) = (   0.0833333   0.2500000   0.4166667), wk =   0.0740741
        k(    6) = (   0.0833333   0.4166667   0.4166667), wk =   0.0740741
        k(    7) = (   0.2500000   0.2500000   0.2500000), wk =   0.0370370
        k(    8) = (   0.2500000   0.2500000   0.4166667), wk =   0.0370370
        k(    9) = (   0.2500000   0.4166667   0.4166667), wk =   0.0740741
        k(   10) = (   0.4166667   0.4166667   0.4166667), wk =   0.0370370
        k(   11) = (   0.0833333  -0.0833333   0.0833333), wk =   0.0370370
        k(   12) = (   0.0833333  -0.0833333   0.2500000), wk =   0.0370370
        k(   13) = (   0.2500000  -0.0833333   0.0833333), wk =   0.0740741
        k(   14) = (  -0.2500000  -0.0833333  -0.0833333), wk =   0.0740741
        k(   15) = (   0.0833333  -0.0833333   0.4166667), wk =   0.0370370
        k(   16) = (   0.4166667  -0.0833333   0.0833333), wk =   0.0740741
        k(   17) = (  -0.4166667  -0.0833333  -0.0833333), wk =   0.0740741
        k(   18) = (   0.2500000  -0.0833333   0.2500000), wk =   0.0740741
        k(   19) = (   0.2500000  -0.2500000   0.0833333), wk =   0.0370370
        k(   20) = (  -0.2500000  -0.2500000  -0.0833333), wk =   0.0370370
        k(   21) = (   0.2500000  -0.0833333   0.4166667), wk =   0.0740741
        k(   22) = (   0.4166667  -0.2500000   0.0833333), wk =   0.0740741
        k(   23) = (  -0.4166667  -0.2500000  -0.0833333), wk =   0.0740741
        k(   24) = (  -0.0833333   0.4166667   0.2500000), wk =   0.0740741
        k(   25) = (  -0.0833333  -0.4166667  -0.2500000), wk =   0.0740741
        k(   26) = (   0.4166667  -0.0833333   0.4166667), wk =   0.0740741
        k(   27) = (   0.4166667  -0.4166667   0.0833333), wk =   0.0370370
        k(   28) = (  -0.4166667  -0.4166667  -0.0833333), wk =   0.0370370
        k(   29) = (   0.2500000  -0.2500000   0.2500000), wk =   0.0370370
        k(   30) = (   0.2500000  -0.2500000   0.4166667), wk =   0.0370370
        k(   31) = (   0.4166667  -0.2500000   0.2500000), wk =   0.0740741
        k(   32) = (  -0.4166667  -0.2500000  -0.2500000), wk =   0.0740741
        k(   33) = (   0.4166667  -0.2500000   0.4166667), wk =   0.0740741
        k(   34) = (   0.4166667  -0.4166667   0.2500000), wk =   0.0370370
        k(   35) = (  -0.4166667  -0.4166667  -0.2500000), wk =   0.0370370
        k(   36) = (   0.4166667  -0.4166667   0.4166667), wk =   0.0370370

     Dense  grid:   106431 G-vectors     FFT dimensions: (  60,  60,  60)

     Estimated max dynamical RAM per process >      24.04 MB

     Estimated total dynamical RAM >     865.41 MB

     Initial potential from superposition of free atoms

     starting charge  167.97676, renormalised to  168.00000
     Starting wfcs are  168 randomized atomic wfcs

     total cpu time spent up to now is       58.2 secs

     Self-consistent Calculation

     iteration #  1     ecut=    20.00 Ry     beta= 0.70
     Davidson diagonalization with overlap
     ethr =  1.00E-02,  avg # of iterations =  2.0

     Threshold (ethr) on eigenvalues was too large:
     Diagonalizing with lowered threshold

     Davidson diagonalization with overlap
     ethr =  8.67E-04,  avg # of iterations =  2.9

     total cpu time spent up to now is      414.2 secs

     total energy              =    -326.25305961 Ry
     estimated scf accuracy    <       1.80011107 Ry

     iteration #  2     ecut=    20.00 Ry     beta= 0.70
     Davidson diagonalization with overlap
     ethr =  1.07E-03,  avg # of iterations = 13.7

     total cpu time spent up to now is     1204.7 secs

     total energy              =    -323.46471881 Ry
     estimated scf accuracy    <      33.31851252 Ry

     iteration #  3     ecut=    20.00 Ry     beta= 0.70
     Davidson diagonalization with overlap
     ethr =  1.07E-03,  avg # of iterations = 10.8

     total cpu time spent up to now is     1838.8 secs

     total energy              =    -326.72816212 Ry
     estimated scf accuracy    <       1.38436968 Ry

     iteration #  4     ecut=    20.00 Ry     beta= 0.70
     Davidson diagonalization with overlap
     ethr =  8.24E-04,  avg # of iterations =  8.2

     total cpu time spent up to now is     2319.7 secs

     total energy              =    -326.84210145 Ry
     estimated scf accuracy    <       2.11828032 Ry

     iteration #  5     ecut=    20.00 Ry     beta= 0.70
     Davidson diagonalization with overlap
     ethr =  8.24E-04,  avg # of iterations =  4.7

     total cpu time spent up to now is     2617.9 secs

     total energy              =    -326.92958129 Ry
     estimated scf accuracy    <       0.35058466 Ry

     iteration #  6     ecut=    20.00 Ry     beta= 0.70
     Davidson diagonalization with overlap
     ethr =  2.09E-04,  avg # of iterations =  6.5

     total cpu time spent up to now is     3015.9 secs

     total energy              =    -327.01806367 Ry
     estimated scf accuracy    <       0.08948301 Ry

     iteration #  7     ecut=    20.00 Ry     beta= 0.70
     Davidson diagonalization with overlap
     c_bands:  1 eigenvalues not converged
     c_bands:  1 eigenvalues not converged
     ethr =  5.33E-05,  avg # of iterations =  8.7

     total cpu time spent up to now is     3520.0 secs

     total energy              =    -327.01613365 Ry
     estimated scf accuracy    <       0.08857593 Ry

     iteration #  8     ecut=    20.00 Ry     beta= 0.70
     Davidson diagonalization with overlap
     ethr =  5.27E-05,  avg # of iterations =  3.5

     total cpu time spent up to now is     3758.2 secs

     total energy              =    -327.01706600 Ry
     estimated scf accuracy    <       0.02816763 Ry

     iteration #  9     ecut=    20.00 Ry     beta= 0.70
     Davidson diagonalization with overlap
     c_bands:  1 eigenvalues not converged
     c_bands:  1 eigenvalues not converged
     c_bands:  1 eigenvalues not converged
     c_bands:  1 eigenvalues not converged
     c_bands:  1 eigenvalues not converged
     c_bands:  2 eigenvalues not converged
     c_bands:  1 eigenvalues not converged
     ethr =  1.68E-05,  avg # of iterations = 11.5

     total cpu time spent up to now is     4416.9 secs

     total energy              =    -327.02505098 Ry
     estimated scf accuracy    <       0.00988040 Ry

     iteration # 10     ecut=    20.00 Ry     beta= 0.70
     Davidson diagonalization with overlap
     c_bands:  1 eigenvalues not converged
     c_bands:  1 eigenvalues not converged
     c_bands:  1 eigenvalues not converged
     c_bands:  1 eigenvalues not converged
     ethr =  5.88E-06,  avg # of iterations =  9.4

     total cpu time spent up to now is     4956.8 secs

     total energy              =    -327.02423001 Ry
     estimated scf accuracy    <       0.01041800 Ry

     iteration # 11     ecut=    20.00 Ry     beta= 0.70
     Davidson diagonalization with overlap
     c_bands:  1 eigenvalues not converged
     ethr =  5.88E-06,  avg # of iterations =  6.4

     total cpu time spent up to now is     5341.7 secs

     total energy              =    -327.02472632 Ry
     estimated scf accuracy    <       0.00262908 Ry

     iteration # 12     ecut=    20.00 Ry     beta= 0.70
     Davidson diagonalization with overlap
     c_bands:  1 eigenvalues not converged
     c_bands:  1 eigenvalues not converged
     ethr =  1.56E-06,  avg # of iterations = 11.0

     total cpu time spent up to now is     5968.6 secs

     total energy              =    -327.02537275 Ry
     estimated scf accuracy    <       0.00045077 Ry

     iteration # 13     ecut=    20.00 Ry     beta= 0.70
     Davidson diagonalization with overlap
     c_bands:  1 eigenvalues not converged
     c_bands:  1 eigenvalues not converged
     c_bands:  1 eigenvalues not converged
     c_bands:  1 eigenvalues not converged
     c_bands:  2 eigenvalues not converged
     c_bands:  1 eigenvalues not converged
     c_bands:  1 eigenvalues not converged
     c_bands:  1 eigenvalues not converged
     c_bands:  1 eigenvalues not converged
     c_bands:  1 eigenvalues not converged
     c_bands:  1 eigenvalues not converged
     ethr =  2.68E-07,  avg # of iterations = 16.8

     total cpu time spent up to now is     6903.7 secs

     total energy              =    -327.02549552 Ry
     estimated scf accuracy    <       0.00293025 Ry

     iteration # 14     ecut=    20.00 Ry     beta= 0.70
     Davidson diagonalization with overlap
     c_bands:  1 eigenvalues not converged
     c_bands:  2 eigenvalues not converged
     c_bands:  1 eigenvalues not converged
     c_bands:  1 eigenvalues not converged
     c_bands:  1 eigenvalues not converged
     c_bands:  1 eigenvalues not converged
     ethr =  2.68E-07,  avg # of iterations = 10.6

     total cpu time spent up to now is     7507.9 secs

     total energy              =    -327.02544331 Ry
     estimated scf accuracy    <       0.00088439 Ry

     iteration # 15     ecut=    20.00 Ry     beta= 0.70
     Davidson diagonalization with overlap
     c_bands:  1 eigenvalues not converged
     c_bands:  1 eigenvalues not converged
     c_bands:  1 eigenvalues not converged
     c_bands:  1 eigenvalues not converged
     c_bands:  1 eigenvalues not converged
     c_bands:  1 eigenvalues not converged
     ethr =  2.68E-07,  avg # of iterations = 11.3

     total cpu time spent up to now is     8158.6 secs

     total energy              =    -327.02558831 Ry
     estimated scf accuracy    <       0.00015201 Ry

     iteration # 16     ecut=    20.00 Ry     beta= 0.70
     Davidson diagonalization with overlap
     c_bands:  1 eigenvalues not converged
     ethr =  9.05E-08,  avg # of iterations =  9.2

     total cpu time spent up to now is     8687.8 secs

     total energy              =    -327.02558517 Ry
     estimated scf accuracy    <       0.00008830 Ry

     iteration # 17     ecut=    20.00 Ry     beta= 0.70
     Davidson diagonalization with overlap
     c_bands:  1 eigenvalues not converged
     c_bands:  1 eigenvalues not converged
     c_bands:  1 eigenvalues not converged
     c_bands:  1 eigenvalues not converged
     c_bands:  1 eigenvalues not converged
     c_bands:  1 eigenvalues not converged
     ethr =  5.26E-08,  avg # of iterations = 11.4

     total cpu time spent up to now is     9351.0 secs

     total energy              =    -327.02562203 Ry
     estimated scf accuracy    <       0.00001950 Ry

     iteration # 18     ecut=    20.00 Ry     beta= 0.70
     Davidson diagonalization with overlap
     c_bands:  1 eigenvalues not converged
     c_bands:  1 eigenvalues not converged
     c_bands:  1 eigenvalues not converged
     c_bands:  1 eigenvalues not converged
     c_bands:  1 eigenvalues not converged
     c_bands:  1 eigenvalues not converged
     c_bands:  1 eigenvalues not converged
     ethr =  1.16E-08,  avg # of iterations = 12.4

     total cpu time spent up to now is    10061.8 secs

     total energy              =    -327.02562783 Ry
     estimated scf accuracy    <       0.00002676 Ry

     iteration # 19     ecut=    20.00 Ry     beta= 0.70
     Davidson diagonalization with overlap
     c_bands:  1 eigenvalues not converged
     c_bands:  1 eigenvalues not converged
     c_bands:  1 eigenvalues not converged
     ethr =  1.16E-08,  avg # of iterations =  5.4

     total cpu time spent up to now is    10394.6 secs

     total energy              =    -327.02562714 Ry
     estimated scf accuracy    <       0.00001243 Ry

     iteration # 20     ecut=    20.00 Ry     beta= 0.70
     Davidson diagonalization with overlap
     c_bands:  1 eigenvalues not converged
     c_bands:  1 eigenvalues not converged
     c_bands:  1 eigenvalues not converged
     c_bands:  1 eigenvalues not converged
     c_bands:  1 eigenvalues not converged
     c_bands:  1 eigenvalues not converged
     c_bands:  1 eigenvalues not converged
     ethr =  7.40E-09,  avg # of iterations = 13.3

     total cpu time spent up to now is    11141.7 secs

     total energy              =    -327.02562979 Ry
     estimated scf accuracy    <       0.00000551 Ry

     iteration # 21     ecut=    20.00 Ry     beta= 0.70
     Davidson diagonalization with overlap
     c_bands:  1 eigenvalues not converged
     c_bands:  1 eigenvalues not converged
     c_bands:  1 eigenvalues not converged
     ethr =  3.28E-09,  avg # of iterations =  7.7

     total cpu time spent up to now is    11607.8 secs

     total energy              =    -327.02563007 Ry
     estimated scf accuracy    <       0.00001031 Ry

     iteration # 22     ecut=    20.00 Ry     beta= 0.70
     Davidson diagonalization with overlap
     c_bands:  1 eigenvalues not converged
     c_bands:  1 eigenvalues not converged
     c_bands:  1 eigenvalues not converged
     ethr =  3.28E-09,  avg # of iterations =  3.1

     total cpu time spent up to now is    11811.7 secs

     total energy              =    -327.02562907 Ry
     estimated scf accuracy    <       0.00000978 Ry

     iteration # 23     ecut=    20.00 Ry     beta= 0.70
     Davidson diagonalization with overlap
     c_bands:  1 eigenvalues not converged
     c_bands:  1 eigenvalues not converged
     c_bands:  1 eigenvalues not converged
     ethr =  3.28E-09,  avg # of iterations =  9.4

     total cpu time spent up to now is    12355.8 secs

     total energy              =    -327.02562908 Ry
     estimated scf accuracy    <       0.00000295 Ry

     iteration # 24     ecut=    20.00 Ry     beta= 0.70
     Davidson diagonalization with overlap
     c_bands:  1 eigenvalues not converged
     c_bands:  1 eigenvalues not converged
     c_bands:  2 eigenvalues not converged
     c_bands:  1 eigenvalues not converged
     c_bands:  1 eigenvalues not converged
     c_bands:  1 eigenvalues not converged
     ethr =  1.76E-09,  avg # of iterations = 12.4

     total cpu time spent up to now is    13060.8 secs

     total energy              =    -327.02562964 Ry
     estimated scf accuracy    <       0.00000301 Ry

     iteration # 25     ecut=    20.00 Ry     beta= 0.70
     Davidson diagonalization with overlap
     c_bands:  1 eigenvalues not converged
     c_bands:  1 eigenvalues not converged
     ethr =  1.76E-09,  avg # of iterations =  5.4

     total cpu time spent up to now is    13397.1 secs

     total energy              =    -327.02562962 Ry
     estimated scf accuracy    <       0.00000122 Ry

     iteration # 26     ecut=    20.00 Ry     beta= 0.70
     Davidson diagonalization with overlap
     c_bands:  1 eigenvalues not converged
     c_bands:  1 eigenvalues not converged
     c_bands:  1 eigenvalues not converged
     c_bands:  1 eigenvalues not converged
     c_bands:  1 eigenvalues not converged
     c_bands:  1 eigenvalues not converged
     ethr =  7.27E-10,  avg # of iterations = 11.2

     total cpu time spent up to now is    14052.0 secs

     End of self-consistent calculation

          k = 0.0833 0.0833 0.0833 ( 13331 PWs)   bands (ev):

    -8.6094  -7.7495  -7.7397  -7.7347  -7.1248  -7.0660  -6.9094  -6.7424
    -6.6824  -6.6099  -6.2973  -6.2813  -6.0243  -5.8330  -5.7942  -5.5679
    -5.4845  -5.2346  -4.7899  -4.6589  -4.5947  -4.5497  -4.4902  -4.4521
    -4.2859  -3.7828  -3.6863  -3.5435  -3.4436  -3.2993  -3.1984  -3.0885
    -3.0464  -2.9320  -2.7868  -2.2864  -2.1577  -2.0480  -1.5114  -1.4147
    -1.1909  -0.9003  -0.8323  -0.7730  -0.7500  -0.7319  -0.6006  -0.5668
    -0.4910  -0.4053  -0.2031  -0.0445   0.0135   0.0885   0.0936   0.2647
     0.3101   0.4142   0.5778   0.7013   0.7412   0.8275   0.9004   0.9255
     0.9619   0.9705   1.0962   1.1569   1.2373   1.2841   1.4006   1.5142
     1.5213   1.5800   1.6174   1.7403   1.8024   1.8380   1.9349   2.0647
     2.1141   2.1679   2.2508   2.2787

          k = 0.0833 0.0833 0.2500 ( 13348 PWs)   bands (ev):

    -8.6003  -7.7801  -7.7443  -7.7245  -7.1546  -7.0603  -6.9316  -6.7391
    -6.6800  -6.5465  -6.2806  -6.2549  -5.9945  -5.8421  -5.7939  -5.5782
    -5.4848  -5.3003  -4.7955  -4.6519  -4.5840  -4.5444  -4.4869  -4.4523
    -4.3308  -3.8181  -3.6564  -3.5443  -3.4597  -3.3492  -3.2152  -3.0764
    -3.0372  -2.8809  -2.6638  -2.3182  -2.1573  -2.0310  -1.5195  -1.4744
    -1.2237  -0.8984  -0.8404  -0.7562  -0.7561  -0.7105  -0.6137  -0.5456
    -0.5228  -0.3601  -0.2075  -0.0144  -0.0027   0.0516   0.0775   0.2340
     0.3108   0.3740   0.5233   0.6776   0.6841   0.7294   0.8731   0.9297
     0.9299   0.9939   1.1921   1.2771   1.2855   1.4071   1.4088   1.5460
     1.5482   1.6621   1.6861   1.8198   1.8338   1.8899   1.9796   2.0389
     2.1504   2.1683   2.1777   2.3583

          k = 0.0833 0.0833 0.4167 ( 13337 PWs)   bands (ev):

    -8.5907  -7.8181  -7.7391  -7.7134  -7.1844  -7.0552  -6.9530  -6.7358
    -6.6775  -6.4917  -6.2508  -6.2250  -5.9655  -5.8511  -5.7938  -5.5921
    -5.4853  -5.3755  -4.8010  -4.6453  -4.5727  -4.5410  -4.4799  -4.4570
    -4.3600  -3.8526  -3.6348  -3.5461  -3.4819  -3.3847  -3.2299  -3.0666
    -3.0187  -2.8374  -2.5364  -2.3511  -2.1565  -2.0156  -1.6342  -1.4298
    -1.2484  -0.9153  -0.8466  -0.7613  -0.7311  -0.6776  -0.6395  -0.5559
    -0.5268  -0.3343  -0.2113  -0.0307  -0.0122   0.0678   0.0899   0.1918
     0.3100   0.3273   0.4602   0.6185   0.6386   0.7014   0.8574   0.9371
     0.9416   1.0296   1.2471   1.2892   1.4108   1.4549   1.5044   1.5515
     1.6026   1.6641   1.7028   1.8568   1.9451   1.9578   2.0166   2.0811
     2.1554   2.1760   2.2731   2.2753

          k = 0.0833 0.2500 0.2500 ( 13332 PWs)   bands (ev):

    -8.5899  -7.7824  -7.7711  -7.7231  -7.1720  -7.0954  -6.9440  -6.6949
    -6.6201  -6.5469  -6.2805  -6.2494  -5.9996  -5.8118  -5.7951  -5.5366
    -5.4809  -5.2666  -4.8573  -4.7340  -4.6458  -4.5722  -4.5284  -4.4776
    -4.3040  -3.8214  -3.6047  -3.5828  -3.4195  -3.2780  -3.1113  -3.0855
    -2.9842  -2.8631  -2.6268  -2.3552  -2.2476  -2.0896  -1.5810  -1.4662
    -1.2887  -0.9098  -0.8491  -0.8054  -0.7601  -0.6561  -0.6375  -0.5512
    -0.4568  -0.2945  -0.2350  -0.0112  -0.0065   0.0537   0.1441   0.1924
     0.2876   0.4151   0.5428   0.6554   0.7297   0.7844   0.8422   0.9395
     0.9732   1.0384   1.1996   1.2479   1.2956   1.3699   1.4378   1.5543
     1.5963   1.6602   1.7281   1.8407   1.8657   1.9209   1.9769   2.0282
     2.1396   2.1788   2.2555   2.2847

          k = 0.0833 0.2500 0.4167 ( 13323 PWs)   bands (ev):

    -8.5802  -7.8093  -7.7754  -7.7139  -7.2005  -7.0919  -6.9656  -6.6914
    -6.6181  -6.4932  -6.2478  -6.2200  -5.9699  -5.8190  -5.7931  -5.5460
    -5.4892  -5.3489  -4.8584  -4.7319  -4.6462  -4.5704  -4.5174  -4.4732
    -4.3299  -3.8555  -3.5853  -3.5790  -3.4512  -3.2904  -3.1007  -3.0913
    -2.9714  -2.8237  -2.5108  -2.3900  -2.2637  -2.0810  -1.6258  -1.4964
    -1.3079  -0.9219  -0.8639  -0.7998  -0.7528  -0.6609  -0.5927  -0.5201
    -0.4977  -0.2688  -0.2422  -0.0430   0.0018   0.0996   0.1245   0.2056
     0.2740   0.3915   0.5130   0.6455   0.6745   0.8009   0.8524   0.8839
     0.9752   1.0585   1.2304   1.2700   1.3401   1.3950   1.4532   1.5441
     1.6601   1.6725   1.7426   1.8303   1.9090   1.9909   2.0286   2.0697
     2.1392   2.1925   2.2054   2.3168

          k = 0.0833 0.4167 0.4167 ( 13351 PWs)   bands (ev):

    -8.5691  -7.8176  -7.8000  -7.7044  -7.2168  -7.1286  -6.9742  -6.6660
    -6.5458  -6.4898  -6.2413  -6.2207  -5.9867  -5.7847  -5.7685  -5.5063
    -5.4919  -5.3285  -4.9707  -4.7689  -4.7043  -4.6207  -4.5338  -4.4494
    -4.3127  -3.8890  -3.6024  -3.5316  -3.4253  -3.2491  -3.1281  -2.9574
    -2.8722  -2.8014  -2.5091  -2.4034  -2.3668  -2.1408  -1.6977  -1.5440
    -1.3140  -0.9634  -0.8741  -0.8219  -0.7606  -0.6977  -0.5471  -0.4772
    -0.4165  -0.3022  -0.1619  -0.0977   0.0053   0.0599   0.1441   0.2726
     0.3722   0.4003   0.5164   0.6600   0.7178   0.8104   0.8374   0.9398
     1.0538   1.1106   1.1669   1.2602   1.3075   1.3723   1.4381   1.5147
     1.5712   1.6128   1.7573   1.8170   1.8918   1.9510   2.0628   2.1149
     2.1444   2.1963   2.2352   2.3255

          k = 0.2500 0.2500 0.2500 ( 13322 PWs)   bands (ev):

    -8.5797  -7.7782  -7.7628  -7.7614  -7.1899  -7.1279  -6.9582  -6.6242
    -6.5872  -6.5494  -6.2862  -6.2397  -5.9882  -5.7955  -5.7795  -5.4962
    -5.4826  -5.2414  -4.8781  -4.8110  -4.7036  -4.6194  -4.5877  -4.5155
    -4.2957  -3.7679  -3.5740  -3.5657  -3.4232  -3.1417  -3.1370  -3.0290
    -2.9811  -2.8433  -2.6040  -2.4059  -2.2981  -2.1530  -1.5747  -1.5055
    -1.3569  -0.9079  -0.8787  -0.7855  -0.7605  -0.6504  -0.6191  -0.5551
    -0.3784  -0.2821  -0.1832  -0.0588  -0.0017   0.0642   0.2011   0.2073
     0.2958   0.3839   0.5429   0.6847   0.6881   0.7859   0.8082   0.9419
     1.0348   1.0527   1.1809   1.2206   1.3059   1.3702   1.4650   1.6005
     1.6187   1.7070   1.7356   1.7753   1.8670   1.9257   1.9575   2.0384
     2.0707   2.1681   2.1855   2.2797

          k = 0.2500 0.2500 0.4167 ( 13322 PWs)   bands (ev):

    -8.5700  -7.8006  -7.7729  -7.7510  -7.2146  -7.1288  -6.9802  -6.6208
    -6.5850  -6.4980  -6.2503  -6.2092  -5.9520  -5.7976  -5.7874  -5.5065
    -5.4922  -5.3285  -4.8793  -4.8044  -4.7111  -4.6147  -4.5805  -4.5116
    -4.3176  -3.8003  -3.5662  -3.5522  -3.4445  -3.1440  -3.1230  -3.0443
    -2.9621  -2.8045  -2.5229  -2.4053  -2.3441  -2.1481  -1.5838  -1.5335
    -1.4140  -0.9175  -0.8682  -0.7881  -0.7753  -0.6380  -0.5709  -0.5132
    -0.4308  -0.3122  -0.1481  -0.1128   0.0352   0.1024   0.2015   0.2430
     0.3002   0.3882   0.5380   0.6759   0.7281   0.7842   0.8220   0.8839
     0.9721   1.0605   1.1931   1.2456   1.3304   1.3440   1.4684   1.5840
     1.6383   1.7043   1.7186   1.8373   1.8546   1.9541   1.9940   2.0286
     2.0563   2.1458   2.2262   2.3237

          k = 0.2500 0.4167 0.4167 ( 13326 PWs)   bands (ev):

    -8.5592  -7.8068  -7.7917  -7.7477  -7.2268  -7.1689  -6.9907  -6.5848
    -6.5233  -6.4970  -6.2476  -6.2028  -5.9567  -5.7748  -5.7435  -5.5043
    -5.4802  -5.3149  -4.9645  -4.8418  -4.7665  -4.6516  -4.5776  -4.5240
    -4.3273  -3.7925  -3.5922  -3.5314  -3.3906  -3.1598  -3.0827  -2.9487
    -2.8890  -2.7791  -2.5807  -2.4596  -2.3171  -2.2048  -1.6604  -1.5426
    -1.4452  -0.9571  -0.8505  -0.8228  -0.7616  -0.6500  -0.5109  -0.4924
    -0.3768  -0.3197  -0.1437  -0.0807   0.0259   0.1165   0.1959   0.2931
     0.3762   0.3978   0.5467   0.6590   0.7339   0.7795   0.8384   0.9317
     1.0091   1.0550   1.1516   1.2277   1.2822   1.3064   1.5053   1.5151
     1.5602   1.6096   1.7608   1.7902   1.8312   1.9343   2.0038   2.0463
     2.0987   2.1780   2.2333   2.2850

          k = 0.4167 0.4167 0.4167 ( 13322 PWs)   bands (ev):

    -8.5486  -7.8035  -7.7831  -7.7795  -7.2366  -7.2096  -7.0039  -6.5168
    -6.5014  -6.4910  -6.2490  -6.1903  -5.9439  -5.7465  -5.7054  -5.5108
    -5.4751  -5.3032  -4.9650  -4.9413  -4.8199  -4.6865  -4.6078  -4.5298
    -4.3545  -3.7319  -3.5687  -3.5673  -3.3107  -3.2021  -2.9795  -2.9287
    -2.8657  -2.7603  -2.6221  -2.5199  -2.2680  -2.2621  -1.6542  -1.5784
    -1.5250  -0.9753  -0.8555  -0.7871  -0.7322  -0.6211  -0.5018  -0.4614
    -0.3782  -0.2747  -0.1643  -0.0592  -0.0091   0.1677   0.2171   0.2737
     0.3738   0.5210   0.6290   0.6327   0.7081   0.8161   0.8450   0.8864
     0.9978   1.0824   1.1338   1.1656   1.2480   1.3528   1.3555   1.3807
     1.4776   1.6447   1.7194   1.7903   1.8513   1.8948   1.9722   2.0775
     2.0897   2.1526   2.1832   2.2777

          k = 0.0833-0.0833 0.0833 ( 13331 PWs)   bands (ev):

    -8.6094  -7.7504  -7.7397  -7.7338  -7.1214  -7.0696  -6.9109  -6.7397
    -6.6830  -6.6103  -6.2883  -6.2880  -6.0285  -5.8318  -5.7838  -5.5855
    -5.4838  -5.2359  -4.7832  -4.6550  -4.6222  -4.5091  -4.4865  -4.4358
    -4.2992  -3.8108  -3.7016  -3.5861  -3.3780  -3.3007  -3.1981  -3.0914
    -3.0467  -2.9219  -2.8067  -2.2875  -2.1350  -2.0407  -1.5239  -1.4111
    -1.1970  -0.8807  -0.8341  -0.7796  -0.7463  -0.7436  -0.5662  -0.5468
    -0.5449  -0.4188  -0.1953  -0.0363   0.0078   0.0904   0.1059   0.1864
     0.3061   0.4579   0.5929   0.6855   0.8179   0.8583   0.8848   0.9192
     0.9595   0.9985   1.0513   1.1160   1.1905   1.2720   1.4105   1.4787
     1.5572   1.5964   1.6209   1.7498   1.7645   1.8721   1.9558   2.0799
     2.0821   2.1512   2.2295   2.2810

          k = 0.0833-0.0833 0.2500 ( 13348 PWs)   bands (ev):

    -8.6003  -7.7802  -7.7453  -7.7235  -7.1524  -7.0632  -6.9323  -6.7369
    -6.6804  -6.5471  -6.2772  -6.2556  -5.9997  -5.8410  -5.7835  -5.5917
    -5.4871  -5.3015  -4.7889  -4.6525  -4.6096  -4.4956  -4.4874  -4.4306
    -4.3509  -3.8445  -3.6737  -3.5876  -3.3835  -3.3649  -3.2153  -3.0756
    -3.0356  -2.8753  -2.6815  -2.3231  -2.1262  -2.0259  -1.5367  -1.4679
    -1.2207  -0.9010  -0.8363  -0.7869  -0.7254  -0.7138  -0.6046  -0.5555
    -0.5205  -0.3771  -0.2028  -0.0052   0.0029   0.0543   0.0751   0.2068
     0.2738   0.3957   0.5198   0.6590   0.7300   0.7706   0.8463   0.9391
     0.9634   1.0348   1.1371   1.2426   1.2554   1.3045   1.4765   1.4986
     1.6337   1.6363   1.7467   1.7760   1.8242   1.9195   1.9663   2.0428
     2.1469   2.1835   2.2207   2.2943

          k = 0.2500-0.0833 0.0833 ( 13348 PWs)   bands (ev):

    -8.5990  -7.7897  -7.7312  -7.7304  -7.1360  -7.1073  -6.9226  -6.6958
    -6.6222  -6.6106  -6.2894  -6.2812  -6.0378  -5.7985  -5.7822  -5.5663
    -5.4699  -5.1973  -4.8491  -4.7325  -4.6593  -4.5377  -4.5089  -4.4700
    -4.2825  -3.8464  -3.6741  -3.5988  -3.3196  -3.2619  -3.1265  -3.0653
    -3.0018  -2.8879  -2.7812  -2.3136  -2.1920  -2.0815  -1.6056  -1.3915
    -1.2702  -0.8908  -0.8400  -0.8012  -0.7540  -0.7132  -0.6181  -0.5768
    -0.4540  -0.3906  -0.1805  -0.0020   0.0330   0.0500   0.0784   0.1729
     0.3014   0.4560   0.5772   0.6182   0.7865   0.8787   0.9242   0.9614
     0.9859   1.0320   1.0922   1.1331   1.2438   1.3343   1.4477   1.5260
     1.5823   1.6306   1.7062   1.7124   1.8101   1.8934   1.9672   2.0755
     2.1053   2.1867   2.2735   2.3485

          k =-0.2500-0.0833-0.0833 ( 13348 PWs)   bands (ev):

    -8.5990  -7.7893  -7.7315  -7.7305  -7.1450  -7.0976  -6.9215  -6.6983
    -6.6226  -6.6094  -6.2999  -6.2751  -6.0303  -5.8068  -5.7944  -5.5297
    -5.4737  -5.1943  -4.8563  -4.7354  -4.6474  -4.5707  -4.5397  -4.4832
    -4.2668  -3.7864  -3.6405  -3.5826  -3.3841  -3.2617  -3.1228  -3.0751
    -2.9941  -2.9069  -2.7333  -2.3311  -2.2239  -2.0996  -1.5923  -1.3961
    -1.2453  -0.9170  -0.8521  -0.7847  -0.7514  -0.6983  -0.6422  -0.5940
    -0.4178  -0.3503  -0.2139  -0.0133   0.0145   0.0493   0.1675   0.1861
     0.2812   0.4294   0.5549   0.6371   0.7607   0.8286   0.8736   0.9412
     1.0088   1.0449   1.1473   1.1915   1.2529   1.3861   1.4475   1.5009
     1.5672   1.6458   1.7223   1.7728   1.8059   1.9028   1.9689   1.9983
     2.0687   2.1638   2.3174   2.3352

          k = 0.0833-0.0833 0.4167 ( 13337 PWs)   bands (ev):

    -8.5907  -7.8182  -7.7400  -7.7124  -7.1827  -7.0581  -6.9528  -6.7339
    -6.6779  -6.4923  -6.2486  -6.2243  -5.9720  -5.8501  -5.7834  -5.6007
    -5.4915  -5.3762  -4.7947  -4.6496  -4.5977  -4.4864  -4.4808  -4.4260
    -4.3915  -3.8776  -3.6531  -3.5899  -3.4201  -3.3885  -3.2306  -3.0640
    -3.0153  -2.8344  -2.5551  -2.3562  -2.1195  -2.0130  -1.6438  -1.4307
    -1.2397  -0.9230  -0.8368  -0.8002  -0.7127  -0.6682  -0.6455  -0.5744
    -0.4968  -0.3548  -0.2128  -0.0135   0.0242   0.0362   0.1007   0.2094
     0.2339   0.3326   0.4556   0.5605   0.6971   0.7351   0.8569   0.9617
     0.9702   1.0699   1.1956   1.2800   1.3289   1.3995   1.4581   1.5530
     1.6632   1.6862   1.7453   1.9012   1.9429   1.9454   1.9770   2.0857
     2.1807   2.1888   2.2617   2.3336

          k = 0.4167-0.0833 0.0833 ( 13337 PWs)   bands (ev):

    -8.5881  -7.8322  -7.7219  -7.7204  -7.1562  -7.1396  -6.9288  -6.6742
    -6.6114  -6.5402  -6.2860  -6.2855  -6.0478  -5.7912  -5.7593  -5.5118
    -5.4603  -5.1581  -4.9799  -4.7586  -4.6887  -4.6096  -4.5485  -4.4657
    -4.2657  -3.8495  -3.6313  -3.5929  -3.3355  -3.2311  -3.1603  -2.9843
    -2.8736  -2.8602  -2.7117  -2.3248  -2.3013  -2.1363  -1.7217  -1.3390
    -1.3146  -0.9313  -0.8727  -0.7819  -0.7750  -0.6892  -0.6542  -0.6053
    -0.3906  -0.3140  -0.1845  -0.0369   0.0186   0.0483   0.1212   0.2132
     0.3137   0.3812   0.4892   0.6473   0.7461   0.8403   0.9017   0.9910
     1.0712   1.1167   1.1716   1.2425   1.3050   1.3655   1.4680   1.5173
     1.5605   1.6494   1.7092   1.7924   1.8777   1.9239   1.9853   2.0630
     2.1286   2.2284   2.2987   2.3700

          k =-0.4167-0.0833-0.0833 ( 13337 PWs)   bands (ev):

    -8.5881  -7.8320  -7.7218  -7.7205  -7.1630  -7.1325  -6.9286  -6.6748
    -6.6110  -6.5408  -6.2949  -6.2784  -6.0445  -5.8008  -5.7582  -5.4867
    -5.4694  -5.1570  -4.9813  -4.7634  -4.6799  -4.6311  -4.5569  -4.4735
    -4.2603  -3.8188  -3.6075  -3.6010  -3.3583  -3.2305  -3.1575  -2.9939
    -2.8813  -2.8542  -2.6783  -2.3757  -2.2842  -2.1483  -1.7187  -1.3485
    -1.2896  -0.9390  -0.8724  -0.8048  -0.7542  -0.6829  -0.6663  -0.6078
    -0.3820  -0.2651  -0.2234  -0.0479   0.0247   0.0598   0.1226   0.2149
     0.3139   0.4089   0.4310   0.6933   0.7548   0.7976   0.8938   0.9714
     1.0740   1.1059   1.1931   1.2428   1.3212   1.3952   1.4324   1.5477
     1.6023   1.6665   1.7468   1.8058   1.8432   1.9236   1.9692   2.0164
     2.0868   2.1968   2.2875   2.3428

          k = 0.2500-0.0833 0.2500 ( 13332 PWs)   bands (ev):

    -8.5899  -7.7830  -7.7712  -7.7224  -7.1666  -7.1021  -6.9441  -6.6926
    -6.6198  -6.5482  -6.2744  -6.2505  -6.0086  -5.8071  -5.7795  -5.5674
    -5.4808  -5.2697  -4.8499  -4.7340  -4.6551  -4.5370  -4.5022  -4.4593
    -4.3224  -3.8773  -3.6501  -3.5931  -3.3659  -3.2755  -3.1085  -3.0792
    -2.9848  -2.8518  -2.6718  -2.3556  -2.1880  -2.0768  -1.5932  -1.4733
    -1.2882  -0.9044  -0.8644  -0.8073  -0.7498  -0.6666  -0.6265  -0.5341
    -0.4809  -0.3248  -0.2068  -0.0050   0.0126   0.0601   0.0733   0.1737
     0.2987   0.4362   0.5499   0.6387   0.7475   0.8091   0.8854   0.9374
     0.9958   1.0571   1.1429   1.1896   1.2722   1.3085   1.4783   1.5211
     1.6062   1.6761   1.7297   1.7721   1.8807   1.9303   2.0219   2.0596
     2.1175   2.2152   2.3047   2.3268

          k = 0.2500-0.2500 0.0833 ( 13332 PWs)   bands (ev):

    -8.5889  -7.7869  -7.7682  -7.7219  -7.1508  -7.1430  -6.9359  -6.6227
    -6.6126  -6.5910  -6.2899  -6.2763  -6.0373  -5.7673  -5.7542  -5.5757
    -5.4593  -5.1700  -4.8560  -4.8296  -4.6986  -4.5590  -4.5479  -4.4946
    -4.2945  -3.8473  -3.6760  -3.5881  -3.2721  -3.1541  -3.1349  -3.0185
    -2.9988  -2.8427  -2.7936  -2.3691  -2.1729  -2.1181  -1.6452  -1.3821
    -1.3754  -0.9063  -0.8514  -0.8007  -0.7576  -0.6854  -0.6117  -0.5579
    -0.4438  -0.3174  -0.1321  -0.0400  -0.0065   0.0634   0.0828   0.1850
     0.3410   0.4168   0.5347   0.5839   0.7364   0.8759   0.9040   0.9501
     1.0195   1.0198   1.1386   1.2085   1.2851   1.3286   1.4735   1.5341
     1.5888   1.6901   1.7045   1.7284   1.7696   1.9051   1.9654   2.0840
     2.1114   2.2897   2.3611   2.3770

          k =-0.2500-0.2500-0.0833 ( 13332 PWs)   bands (ev):

    -8.5889  -7.7834  -7.7718  -7.7216  -7.1723  -7.1200  -6.9352  -6.6277
    -6.6115  -6.5894  -6.3066  -6.2674  -6.0240  -5.7941  -5.7717  -5.4880
    -5.4741  -5.1648  -4.8766  -4.8173  -4.6967  -4.6223  -4.5952  -4.5200
    -4.2639  -3.7338  -3.6107  -3.5671  -3.3957  -3.1473  -3.1352  -3.0173
    -2.9948  -2.8872  -2.6886  -2.3934  -2.2523  -2.1592  -1.6103  -1.4571
    -1.2648  -0.9245  -0.8973  -0.7468  -0.7464  -0.6812  -0.6666  -0.5922
    -0.3240  -0.2704  -0.2242  -0.0100  -0.0092   0.0398   0.1830   0.1838
     0.2845   0.3799   0.5126   0.6758   0.6953   0.7833   0.8288   0.9479
     1.0492   1.1025   1.1641   1.2256   1.3043   1.3761   1.4731   1.5620
     1.6211   1.6886   1.7636   1.7881   1.8444   1.8895   1.8961   1.9960
     2.1181   2.1275   2.2077   2.3447

          k = 0.2500-0.0833 0.4167 ( 13323 PWs)   bands (ev):

    -8.5802  -7.8094  -7.7761  -7.7131  -7.1966  -7.0979  -6.9647  -6.6893
    -6.6178  -6.4946  -6.2438  -6.2186  -5.9809  -5.8156  -5.7765  -5.5678
    -5.4953  -5.3522  -4.8508  -4.7347  -4.6525  -4.5327  -4.4970  -4.4479
    -4.3524  -3.9083  -3.6392  -3.5830  -3.4091  -3.2841  -3.0952  -3.0872
    -2.9655  -2.8185  -2.5568  -2.3986  -2.1851  -2.0740  -1.6401  -1.5009
    -1.2955  -0.9260  -0.8796  -0.8168  -0.7372  -0.6678  -0.5937  -0.5347
    -0.4683  -0.2891  -0.2405   0.0082   0.0232   0.0634   0.0978   0.1590
     0.2940   0.3972   0.5247   0.6008   0.6639   0.8196   0.8883   0.9215
     1.0273   1.0814   1.2060   1.2240   1.2652   1.3506   1.4209   1.5360
     1.6464   1.6846   1.7414   1.8483   1.9205   2.0038   2.0344   2.1097
     2.1613   2.2147   2.2770   2.3135

          k = 0.4167-0.2500 0.0833 ( 13323 PWs)   bands (ev):

    -8.5781  -7.8211  -7.7647  -7.7125  -7.1917  -7.1528  -6.9449  -6.6159
    -6.5897  -6.5192  -6.2966  -6.2728  -6.0366  -5.7572  -5.7256  -5.5292
    -5.4514  -5.1406  -4.9726  -4.8459  -4.7383  -4.6410  -4.5586  -4.5254
    -4.2962  -3.7845  -3.6477  -3.5788  -3.2756  -3.1921  -3.0860  -3.0003
    -2.8781  -2.8298  -2.7463  -2.3921  -2.2308  -2.1787  -1.7202  -1.4489
    -1.3263  -0.9463  -0.8519  -0.7966  -0.7596  -0.6717  -0.6390  -0.5697
    -0.3612  -0.2302  -0.1262  -0.0390  -0.0158   0.0510   0.1251   0.2210
     0.3340   0.3739   0.4603   0.5683   0.6858   0.8142   0.8751   0.9536
     1.0286   1.0611   1.2002   1.2769   1.3518   1.4049   1.4404   1.5107
     1.5993   1.6735   1.7201   1.8057   1.8505   1.9099   1.9576   2.1204
     2.1667   2.2444   2.2916   2.3284

          k =-0.4167-0.2500-0.0833 ( 13323 PWs)   bands (ev):

    -8.5781  -7.8207  -7.7652  -7.7123  -7.1981  -7.1457  -6.9450  -6.6146
    -6.5913  -6.5198  -6.3047  -6.2682  -6.0306  -5.7755  -5.7287  -5.4778
    -5.4641  -5.1392  -4.9756  -4.8458  -4.7436  -4.6612  -4.5881  -4.5368
    -4.2803  -3.7261  -3.6146  -3.5802  -3.3369  -3.1875  -3.0678  -3.0163
    -2.8689  -2.8527  -2.6943  -2.3939  -2.2787  -2.2054  -1.7086  -1.4703
    -1.2793  -0.9430  -0.8805  -0.7887  -0.7461  -0.6759  -0.6528  -0.5813
    -0.3085  -0.2011  -0.1491  -0.0569  -0.0098   0.0558   0.1142   0.2096
     0.3376   0.3842   0.4307   0.6204   0.6806   0.7656   0.8298   0.9990
     1.0456   1.0828   1.2246   1.2264   1.3443   1.3841   1.4840   1.5926
     1.6078   1.6729   1.7603   1.8260   1.8599   1.9266   1.9532   2.0466
     2.1148   2.1321   2.1830   2.3818

          k =-0.0833 0.4167 0.2500 ( 13323 PWs)   bands (ev):

    -8.5788  -7.8251  -7.7618  -7.7130  -7.1852  -7.1357  -6.9517  -6.6697
    -6.5575  -6.5314  -6.2718  -6.2523  -6.0185  -5.7816  -5.7672  -5.5177
    -5.4728  -5.2390  -4.9748  -4.7624  -4.6965  -4.6087  -4.5375  -4.4527
    -4.2961  -3.8826  -3.6172  -3.5685  -3.3732  -3.2413  -3.1435  -2.9688
    -2.8688  -2.8328  -2.6277  -2.3733  -2.3050  -2.1358  -1.7086  -1.4443
    -1.3190  -0.9434  -0.8860  -0.8031  -0.7612  -0.6892  -0.6091  -0.5321
    -0.3988  -0.2751  -0.2006  -0.0663  -0.0106   0.0412   0.1560   0.2051
     0.3539   0.4195   0.5169   0.6604   0.7309   0.8140   0.8954   0.9380
     1.0459   1.1396   1.1709   1.2413   1.2873   1.3328   1.4561   1.5168
     1.5844   1.6302   1.6860   1.8097   1.9005   1.9988   2.0252   2.0815
     2.1397   2.2299   2.2881   2.3478

          k =-0.0833-0.4167-0.2500 ( 13323 PWs)   bands (ev):

    -8.5789  -7.8249  -7.7617  -7.7132  -7.1885  -7.1318  -6.9519  -6.6702
    -6.5577  -6.5310  -6.2750  -6.2513  -6.0147  -5.7925  -5.7649  -5.4953
    -5.4799  -5.2376  -4.9764  -4.7661  -4.6921  -4.6267  -4.5449  -4.4617
    -4.2909  -3.8539  -3.6023  -3.5636  -3.3935  -3.2408  -3.1426  -2.9804
    -2.8644  -2.8364  -2.5930  -2.3900  -2.3291  -2.1441  -1.7076  -1.4333
    -1.3203  -0.9487  -0.8700  -0.8105  -0.7668  -0.6885  -0.6070  -0.5390
    -0.3850  -0.2592  -0.2198  -0.0738  -0.0091   0.0492   0.1690   0.2203
     0.3459   0.4083   0.4870   0.6937   0.7500   0.8046   0.8267   0.9579
     1.0692   1.1401   1.1645   1.2551   1.2910   1.3488   1.4302   1.5334
     1.6235   1.6477   1.7288   1.8044   1.8638   1.9217   2.0482   2.0785
     2.1271   2.2098   2.2608   2.3402

          k = 0.4167-0.0833 0.4167 ( 13351 PWs)   bands (ev):

    -8.5691  -7.8178  -7.8000  -7.7041  -7.2146  -7.1316  -6.9737  -6.6655
    -6.5451  -6.4906  -6.2395  -6.2200  -5.9911  -5.7750  -5.7695  -5.5240
    -5.4885  -5.3304  -4.9691  -4.7663  -4.7054  -4.6051  -4.5276  -4.4388
    -4.3180  -3.9162  -3.6153  -3.5411  -3.4079  -3.2490  -3.1279  -2.9442
    -2.8768  -2.8002  -2.5384  -2.4252  -2.3044  -2.1360  -1.6974  -1.5534
    -1.3093  -0.9594  -0.8966  -0.8171  -0.7536  -0.6990  -0.5511  -0.4677
    -0.4286  -0.2918  -0.1816  -0.0501  -0.0093   0.0428   0.1376   0.2316
     0.3876   0.4324   0.5368   0.6562   0.6997   0.7823   0.8636   0.9368
     1.0418   1.1216   1.1879   1.2670   1.2880   1.3787   1.4157   1.4952
     1.5358   1.6362   1.6778   1.8697   1.9149   1.9690   2.0759   2.1199
     2.1523   2.2356   2.2449   2.3303

          k = 0.4167-0.4167 0.0833 ( 13351 PWs)   bands (ev):

    -8.5676  -7.8150  -7.7993  -7.7035  -7.2308  -7.1628  -6.9573  -6.6168
    -6.5117  -6.4953  -6.3042  -6.2671  -6.0311  -5.7245  -5.6897  -5.5110
    -5.4515  -5.1218  -4.9692  -4.9604  -4.7875  -4.6931  -4.6096  -4.5146
    -4.3238  -3.6956  -3.6412  -3.5708  -3.2443  -3.1958  -3.0962  -2.9377
    -2.8452  -2.7886  -2.7629  -2.4161  -2.2456  -2.2195  -1.7374  -1.5657
    -1.2882  -0.9778  -0.8096  -0.7582  -0.7425  -0.6755  -0.6558  -0.5930
    -0.2907  -0.1771  -0.1148  -0.0326  -0.0181   0.1381   0.1412   0.2142
     0.3190   0.3520   0.4163   0.5226   0.6799   0.7139   0.8672   0.8877
     1.0050   1.1284   1.1858   1.2812   1.2948   1.3893   1.4852   1.5331
     1.6608   1.6992   1.7507   1.7930   1.8146   1.9873   2.0215   2.0564
     2.1372   2.1466   2.2223   2.3631

          k =-0.4167-0.4167-0.0833 ( 13351 PWs)   bands (ev):

    -8.5676  -7.8141  -7.8002  -7.7034  -7.2327  -7.1606  -6.9575  -6.6162
    -6.5130  -6.4949  -6.3080  -6.2649  -6.0284  -5.7350  -5.6926  -5.4748
    -5.4642  -5.1218  -4.9743  -4.9562  -4.7960  -4.6966  -4.6161  -4.5323
    -4.3124  -3.6635  -3.6247  -3.5736  -3.2627  -3.2306  -3.0675  -2.9367
    -2.8424  -2.8179  -2.7279  -2.4021  -2.2639  -2.2496  -1.7287  -1.5770
    -1.2671  -0.9753  -0.8033  -0.7858  -0.7163  -0.6807  -0.6735  -0.5905
    -0.2652  -0.1545  -0.1166  -0.0434  -0.0236   0.1056   0.1372   0.2285
     0.3108   0.3339   0.4675   0.5301   0.6346   0.7062   0.8215   0.9606
     1.0815   1.1074   1.1902   1.1955   1.3145   1.4091   1.4290   1.6275
     1.6425   1.6921   1.7811   1.7823   1.8801   1.9532   1.9833   2.0675
     2.0941   2.1405   2.1924   2.3480

          k = 0.2500-0.2500 0.2500 ( 13322 PWs)   bands (ev):

    -8.5797  -7.7818  -7.7626  -7.7581  -7.1740  -7.1464  -6.9574  -6.6187
    -6.5886  -6.5522  -6.2758  -6.2409  -6.0048  -5.7740  -5.7577  -5.5730
    -5.4735  -5.2471  -4.8573  -4.8270  -4.7001  -4.5572  -4.5395  -4.4915
    -4.3268  -3.8733  -3.6611  -3.5765  -3.3187  -3.1403  -3.1348  -3.0310
    -2.9683  -2.8186  -2.6990  -2.4151  -2.1691  -2.1242  -1.6147  -1.4790
    -1.3852  -0.9059  -0.8900  -0.8225  -0.7402  -0.6379  -0.5819  -0.5543
    -0.4603  -0.2307  -0.1788  -0.0889  -0.0137   0.0927   0.1243   0.1793
     0.3302   0.4396   0.5564   0.6163   0.6985   0.8329   0.9279   0.9429
     1.0059   1.0133   1.1551   1.2121   1.2195   1.3116   1.4579   1.5293
     1.6444   1.7261   1.7355   1.7999   1.8101   1.9124   1.9641   2.0181
     2.1083   2.2928   2.3166   2.3860

          k = 0.2500-0.2500 0.4167 ( 13322 PWs)   bands (ev):

    -8.5700  -7.8009  -7.7764  -7.7473  -7.2042  -7.1429  -6.9779  -6.6158
    -6.5862  -6.5008  -6.2432  -6.2063  -5.9732  -5.7810  -5.7611  -5.5667
    -5.4929  -5.3354  -4.8589  -4.8236  -4.7028  -4.5512  -4.5315  -4.4912
    -4.3485  -3.8995  -3.6565  -3.5623  -3.3594  -3.1410  -3.1178  -3.0458
    -2.9373  -2.7944  -2.5983  -2.4608  -2.1666  -2.1323  -1.6314  -1.5247
    -1.3927  -0.9263  -0.9055  -0.8431  -0.7260  -0.5994  -0.5834  -0.5450
    -0.4366  -0.2364  -0.2234  -0.0435  -0.0076   0.1220   0.1724   0.1750
     0.3105   0.4263   0.5604   0.6438   0.6510   0.7984   0.9025   0.9728
     0.9940   1.0324   1.1959   1.2087   1.2978   1.3057   1.3326   1.5110
     1.6138   1.7596   1.7686   1.7871   1.8416   1.9921   2.0221   2.0371
     2.1178   2.2055   2.2984   2.3949

          k = 0.4167-0.2500 0.2500 ( 13322 PWs)   bands (ev):

    -8.5689  -7.8144  -7.7567  -7.7529  -7.1960  -7.1749  -6.9677  -6.5876
    -6.5552  -6.5164  -6.2798  -6.2371  -6.0010  -5.7571  -5.7329  -5.5335
    -5.4650  -5.2234  -4.9673  -4.8453  -4.7474  -4.6343  -4.5564  -4.5190
    -4.3241  -3.8120  -3.6335  -3.5610  -3.3100  -3.1754  -3.0907  -2.9634
    -2.8844  -2.8008  -2.6837  -2.4424  -2.2340  -2.1852  -1.6923  -1.4579
    -1.4312  -0.9488  -0.8767  -0.8075  -0.7476  -0.6480  -0.5720  -0.5433
    -0.3938  -0.1930  -0.1372  -0.1045  -0.0186   0.0887   0.1671   0.2245
     0.3524   0.4289   0.5205   0.5799   0.6969   0.8213   0.8688   0.9386
     1.0019   1.0624   1.1650   1.2444   1.2980   1.3785   1.4253   1.4964
     1.6245   1.6901   1.7261   1.7970   1.8566   1.8871   1.9691   2.0736
     2.1229   2.2206   2.2822   2.3197

          k =-0.4167-0.2500-0.2500 ( 13322 PWs)   bands (ev):

    -8.5689  -7.8138  -7.7572  -7.7529  -7.2064  -7.1634  -6.9683  -6.5888
    -6.5543  -6.5166  -6.2848  -6.2363  -5.9937  -5.7755  -5.7360  -5.4899
    -5.4719  -5.2214  -4.9705  -4.8438  -4.7548  -4.6566  -4.5833  -4.5300
    -4.3086  -3.7602  -3.5966  -3.5565  -3.3636  -3.1747  -3.0774  -2.9849
    -2.8771  -2.8138  -2.6372  -2.4241  -2.3063  -2.2047  -1.6844  -1.4794
    -1.3956  -0.9490  -0.8516  -0.8024  -0.7661  -0.6626  -0.5803  -0.5415
    -0.3421  -0.2578  -0.0982  -0.0846  -0.0257   0.0701   0.1745   0.2440
     0.3568   0.3910   0.5099   0.6131   0.7062   0.7818   0.8252   0.9904
     1.0127   1.0717   1.1742   1.2355   1.2980   1.3638   1.5031   1.5487
     1.5987   1.6552   1.7396   1.8073   1.8641   1.8967   1.9789   2.0511
     2.1148   2.1576   2.1986   2.3040

          k = 0.4167-0.2500 0.4167 ( 13326 PWs)   bands (ev):

    -8.5592  -7.8076  -7.7918  -7.7469  -7.2195  -7.1777  -6.9895  -6.5837
    -6.5227  -6.4985  -6.2443  -6.2013  -5.9659  -5.7564  -5.7404  -5.5372
    -5.4813  -5.3176  -4.9615  -4.8448  -4.7571  -4.6279  -4.5520  -4.5143
    -4.3421  -3.8398  -3.6293  -3.5419  -3.3428  -3.1587  -3.0929  -2.9223
    -2.8965  -2.7748  -2.6097  -2.4940  -2.2358  -2.1915  -1.6664  -1.5567
    -1.4354  -0.9550  -0.9017  -0.8261  -0.7324  -0.6348  -0.5111  -0.4969
    -0.4210  -0.2534  -0.1762  -0.0558   0.0000   0.1464   0.1707   0.2551
     0.3735   0.4232   0.5778   0.6208   0.7315   0.8269   0.8671   0.8967
     0.9644   1.0506   1.1586   1.2335   1.2958   1.3229   1.3981   1.5169
     1.5667   1.6109   1.6926   1.8366   1.8702   1.9089   2.0132   2.0456
     2.1356   2.2088   2.2520   2.3322

          k = 0.4167-0.4167 0.2500 ( 13326 PWs)   bands (ev):

    -8.5584  -7.8098  -7.7894  -7.7445  -7.2266  -7.1938  -6.9808  -6.5585
    -6.5083  -6.4933  -6.2860  -6.2282  -5.9903  -5.7299  -5.6959  -5.5192
    -5.4644  -5.2071  -4.9649  -4.9540  -4.7994  -4.6841  -4.6067  -4.5145
    -4.3501  -3.7234  -3.6242  -3.5596  -3.2528  -3.2064  -3.0497  -2.9218
    -2.8551  -2.7727  -2.7095  -2.4725  -2.2531  -2.2234  -1.7014  -1.5626
    -1.4190  -0.9758  -0.8477  -0.7708  -0.7244  -0.6317  -0.5892  -0.5449
    -0.3366  -0.1749  -0.1200  -0.1046  -0.0253   0.1842   0.1947   0.2220
     0.3607   0.3942   0.5187   0.5686   0.6954   0.7595   0.8465   0.9176
     0.9747   1.0913   1.1324   1.2726   1.2952   1.3438   1.4231   1.4939
     1.6399   1.7016   1.7418   1.7713   1.7999   1.8470   1.9465   2.0716
     2.1414   2.1467   2.2560   2.2993

          k =-0.4167-0.4167-0.2500 ( 13326 PWs)   bands (ev):

    -8.5584  -7.8089  -7.7903  -7.7445  -7.2307  -7.1892  -6.9812  -6.5579
    -6.5095  -6.4930  -6.2883  -6.2279  -5.9870  -5.7402  -5.6989  -5.4915
    -5.4697  -5.2066  -4.9701  -4.9489  -4.8073  -4.6914  -4.6119  -4.5313
    -4.3387  -3.6994  -3.5917  -3.5695  -3.2839  -3.2169  -3.0296  -2.9281
    -2.8536  -2.7884  -2.6842  -2.4574  -2.2655  -2.2586  -1.6935  -1.5770
    -1.4015  -0.9750  -0.8212  -0.7720  -0.7388  -0.6510  -0.5954  -0.5339
    -0.3084  -0.2190  -0.0998  -0.0758  -0.0346   0.1446   0.1847   0.2600
     0.3671   0.3854   0.5400   0.5535   0.6843   0.7288   0.8482   0.9343
     1.0276   1.1037   1.1751   1.1929   1.2372   1.4054   1.4259   1.5351
     1.6075   1.6598   1.7597   1.7895   1.7928   1.8891   1.9610   2.0929
     2.1126   2.1554   2.1825   2.2819

          k = 0.4167-0.4167 0.4167 ( 13322 PWs)   bands (ev):

    -8.5486  -7.8044  -7.7830  -7.7788  -7.2239  -7.2229  -7.0033  -6.5166
    -6.5012  -6.4913  -6.2475  -6.1896  -5.9482  -5.7364  -5.7022  -5.5295
    -5.4773  -5.3041  -4.9603  -4.9471  -4.8120  -4.6765  -4.6033  -4.5148
    -4.3652  -3.7526  -3.6149  -3.5479  -3.2790  -3.1982  -3.0041  -2.9091
    -2.8667  -2.7554  -2.6362  -2.5352  -2.2605  -2.2264  -1.6628  -1.5603
    -1.5400  -0.9742  -0.8851  -0.7959  -0.7096  -0.6050  -0.4984  -0.4701
    -0.4019  -0.2335  -0.1813  -0.0627  -0.0205   0.2008   0.2339   0.2419
     0.3503   0.4847   0.6615   0.6783   0.7221   0.7882   0.8451   0.9411
     0.9424   1.0398   1.0599   1.2274   1.2761   1.3170   1.3448   1.4327
     1.4922   1.6564   1.6630   1.7936   1.8572   1.8760   1.9465   2.0525
     2.0996   2.2033   2.2312   2.2519

     highest occupied level (ev):     2.3949

!    total energy              =    -327.02562960 Ry
     estimated scf accuracy    <       0.00000038 Ry

     The total energy is the sum of the following terms:
     one-electron contribution =     -81.47053240 Ry
     hartree contribution      =      90.15954969 Ry
     xc contribution           =     -94.38362310 Ry
     ewald contribution        =    -241.33102380 Ry

     convergence has been achieved in  26 iterations

     Forces acting on atoms (cartesian axes, Ry/au):

     atom    1 type  1   force =    -0.00156847   -0.00156847   -0.00754945
     atom    2 type  1   force =    -0.01282628    0.01282628    0.00052919
     atom    3 type  1   force =     0.01282628   -0.01282628    0.00052919
     atom    4 type  1   force =     0.00156847    0.00156847   -0.00754945
     atom    5 type  1   force =    -0.00163367   -0.00163367   -0.00482638
     atom    6 type  1   force =    -0.00655389    0.00655389    0.00098350
     atom    7 type  1   force =     0.00655389   -0.00655389    0.00098350
     atom    8 type  1   force =     0.00163367    0.00163367   -0.00482638
     atom    9 type  1   force =     0.00000000    0.00000000   -0.02948763
     atom   10 type  1   force =     0.00000000    0.00000000    0.00339055
     atom   11 type  1   force =     0.00141338   -0.00069027   -0.00090235
     atom   12 type  1   force =    -0.00141338    0.00069027   -0.00090235
     atom   13 type  1   force =     0.00828269    0.01124724    0.01934714
     atom   14 type  1   force =    -0.00828269   -0.01124724    0.01934714
     atom   15 type  1   force =    -0.00069027    0.00141338   -0.00090235
     atom   16 type  1   force =     0.00069027   -0.00141338   -0.00090235
     atom   17 type  1   force =     0.01124724    0.00828269    0.01934714
     atom   18 type  1   force =    -0.01124724   -0.00828269    0.01934714
     atom   19 type  1   force =    -0.00414423   -0.00414423   -0.00778252
     atom   20 type  1   force =     0.01138910   -0.02274611    0.00322769
     atom   21 type  1   force =    -0.02274611    0.01138910    0.00322769
     atom   22 type  1   force =    -0.00516192   -0.00516192    0.01077951
     atom   23 type  1   force =    -0.00243919   -0.00243919   -0.00227533
     atom   24 type  1   force =     0.02347280    0.00731331   -0.00528024
     atom   25 type  1   force =     0.00731331    0.02347280   -0.00528024
     atom   26 type  1   force =     0.01088639    0.01088639   -0.00529096
     atom   27 type  1   force =     0.00516192    0.00516192    0.01077951
     atom   28 type  1   force =     0.02274611   -0.01138910    0.00322769
     atom   29 type  1   force =    -0.01138910    0.02274611    0.00322769
     atom   30 type  1   force =     0.00414423    0.00414423   -0.00778252
     atom   31 type  1   force =    -0.01088639   -0.01088639   -0.00529096
     atom   32 type  1   force =    -0.00731331   -0.02347280   -0.00528024
     atom   33 type  1   force =    -0.02347280   -0.00731331   -0.00528024
     atom   34 type  1   force =     0.00243919    0.00243919   -0.00227533
     atom   35 type  1   force =    -0.00620762   -0.02638606    0.00174438
     atom   36 type  1   force =     0.01239141   -0.01239141   -0.01067486
     atom   37 type  1   force =    -0.00270447    0.00270447    0.00288259
     atom   38 type  1   force =     0.02638606    0.00620762    0.00174438
     atom   39 type  1   force =    -0.02638606   -0.00620762    0.00174438
     atom   40 type  1   force =     0.00270447   -0.00270447    0.00288259
     atom   41 type  1   force =    -0.01239141    0.01239141   -0.01067486
     atom   42 type  1   force =     0.00620762    0.02638606    0.00174438

     Total force =     0.119486     Total SCF correction =     0.000693


     Computing stress (Cartesian axis) and pressure

          total   stress  (Ry/bohr**3)                   (kbar)     P=      -34.71
  -0.00025066   0.00000319   0.00000000          -36.87        0.47        0.00
   0.00000319  -0.00025066   0.00000000            0.47      -36.87        0.00
   0.00000000   0.00000000  -0.00020644            0.00        0.00      -30.37


     Writing output data file ./Si64.save/

     init_run     :     28.23s CPU     58.00s WALL (       1 calls)
     electrons    :   6557.33s CPU  13993.81s WALL (       1 calls)
     forces       :     20.09s CPU     49.43s WALL (       1 calls)
     stress       :      7.61s CPU     15.04s WALL (       1 calls)

     Called by init_run:
     wfcinit      :     28.17s CPU     57.94s WALL (       1 calls)
     potinit      :      0.01s CPU      0.01s WALL (       1 calls)
     hinit0       :      0.01s CPU      0.01s WALL (       1 calls)

     Called by electrons:
     c_bands      :   6541.60s CPU  13976.37s WALL (      27 calls)
     sum_band     :     13.31s CPU     14.26s WALL (      27 calls)
     v_of_rho     :      0.36s CPU      0.51s WALL (      27 calls)
     mix_rho      :      1.94s CPU      2.48s WALL (      27 calls)

     Called by c_bands:
     init_us_2    :      0.67s CPU      1.62s WALL (    2052 calls)
     cegterg      :   6450.34s CPU  13782.23s WALL (     972 calls)

     Called by *egterg:
     cdiaghg      :   1832.51s CPU   2424.90s WALL (    9529 calls)
     h_psi        :   1578.86s CPU   4310.87s WALL (    9601 calls)
     g_psi        :      0.30s CPU      0.98s WALL (    8593 calls)

     Called by h_psi:
     h_psi:calbec :   1079.11s CPU   2915.34s WALL (    9601 calls)
     vloc_psi     :    326.49s CPU    509.60s WALL (    9601 calls)
     add_vuspsi   :    172.83s CPU    880.95s WALL (    9601 calls)

     General routines
     calbec       :   1103.78s CPU   2967.79s WALL (    9781 calls)
     fft          :      0.22s CPU      0.31s WALL (     278 calls)
     ffts         :      0.01s CPU      0.01s WALL (      27 calls)
     fftw         :    334.92s CPU    512.40s WALL (  557336 calls)

     Parallel routines
     fft_scatt_xy :      5.19s CPU      5.80s WALL (  557641 calls)
     fft_scatt_yz :    304.00s CPU    458.06s WALL (  557641 calls)

     PWSCF        :      1h50m CPU      3h55m WALL


   This run was terminated on:  21:45:20  23Feb2022            

=------------------------------------------------------------------------------=
   JOB DONE.
=------------------------------------------------------------------------------=
