
     Program PWSCF v.6.7MaX starts on 23Feb2022 at 19:29:57 

     This program is part of the open-source Quantum ESPRESSO suite
     for quantum simulation of materials; please cite
         "P. Giannozzi et al., J. Phys.:Condens. Matter 21 395502 (2009);
         "P. Giannozzi et al., J. Phys.:Condens. Matter 29 465901 (2017);
          URL http://www.quantum-espresso.org", 
     in publications or presentations arising from this work. More details at
     http://www.quantum-espresso.org/quote

     Parallel version (MPI), running on    36 processors

     MPI processes distributed on     1 nodes
     R & G space division:  proc/nbgrp/npool/nimage =      36
     Waiting for input...
     Reading input from standard input

     Current dimensions of program PWSCF are:
     Max number of different atomic species (ntypx) = 10
     Max number of k-points (npk) =  40000
     Max angular momentum in pseudopotentials (lmaxx) =  3

     Subspace diagonalization in iterative solution of the eigenvalue problem:
     a serial algorithm will be used

     Message from routine setup:
     using ibrav=0 with symmetry is DISCOURAGED, use correct ibrav instead

     Parallelization info
     --------------------
     sticks:   dense  smooth     PW     G-vecs:    dense   smooth      PW
     Min         264     264     69                19398    19398    2592
     Max         265     265     71                19400    19400    2595
     Sum        9517    9517   2493               698355   698355   93381



     bravais-lattice index     =            0
     lattice parameter (alat)  =      20.6660  a.u.
     unit-cell volume          =    8826.0878 (a.u.)^3
     number of atoms/cell      =           42
     number of atomic types    =            1
     number of electrons       =       168.00
     number of Kohn-Sham states=           84
     kinetic-energy cutoff     =      70.0000  Ry
     charge density cutoff     =     280.0000  Ry
     scf convergence threshold =      1.0E-06
     mixing beta               =       0.7000
     number of iterations used =            8  plain     mixing
     Exchange-correlation=  SLA  PW   PBE  PBE
                           (   1   4   3   4   0   0   0)

     celldm(1)=  20.665984  celldm(2)=   0.000000  celldm(3)=   0.000000
     celldm(4)=   0.000000  celldm(5)=   0.000000  celldm(6)=   0.000000

     crystal axes: (cart. coord. in units of alat)
               a(1) = (   1.000000   0.000000   0.000000 )  
               a(2) = (   0.000000   1.000000   0.000000 )  
               a(3) = (   0.000000   0.000000   1.000000 )  

     reciprocal axes: (cart. coord. in units 2 pi/alat)
               b(1) = (  1.000000  0.000000  0.000000 )  
               b(2) = (  0.000000  1.000000  0.000000 )  
               b(3) = (  0.000000  0.000000  1.000000 )  


     PseudoPot. # 1 for Si read from file:
     ./Si.pbe-rrkj.UPF
     MD5 check sum: cf7ab5690cd9a85b22c4813f7e365554
     Pseudo is Norm-conserving, Zval =  4.0
     Generated by new atomic code, or converted to UPF format
     Using radial grid of  883 points,  3 beta functions with: 
                l(1) =   0
                l(2) =   0
                l(3) =   1

     atomic species   valence    mass     pseudopotential
        Si             4.00    28.08600     Si( 1.00)

      4 Sym. Ops. (no inversion) found



   Cartesian axes

     site n.     atom                  positions (alat units)
         1           Si  tau(   1) = (   0.2500000   0.2500000   0.0000000  )
         2           Si  tau(   2) = (   0.7500000   0.2500000   0.0000000  )
         3           Si  tau(   3) = (   0.2500000   0.7500000   0.0000000  )
         4           Si  tau(   4) = (   0.7500000   0.7500000   0.0000000  )
         5           Si  tau(   5) = (   0.2500000   0.2500000   0.5000000  )
         6           Si  tau(   6) = (   0.7500000   0.2500000   0.5000000  )
         7           Si  tau(   7) = (   0.2500000   0.7500000   0.5000000  )
         8           Si  tau(   8) = (   0.7500000   0.7500000   0.5000000  )
         9           Si  tau(   9) = (   0.5000000   0.5000000   0.0000000  )
        10           Si  tau(  10) = (   0.5000000   0.5000000   0.5000000  )
        11           Si  tau(  11) = (   0.2500000   0.5000000   0.2500000  )
        12           Si  tau(  12) = (   0.7500000   0.5000000   0.2500000  )
        13           Si  tau(  13) = (   0.2500000   0.5000000   0.7500000  )
        14           Si  tau(  14) = (   0.7500000   0.5000000   0.7500000  )
        15           Si  tau(  15) = (   0.5000000   0.2500000   0.2500000  )
        16           Si  tau(  16) = (   0.5000000   0.7500000   0.2500000  )
        17           Si  tau(  17) = (   0.5000000   0.2500000   0.7500000  )
        18           Si  tau(  18) = (   0.5000000   0.7500000   0.7500000  )
        19           Si  tau(  19) = (   0.3750000   0.3750000   0.1250000  )
        20           Si  tau(  20) = (   0.8750000   0.3750000   0.1250000  )
        21           Si  tau(  21) = (   0.3750000   0.8750000   0.1250000  )
        22           Si  tau(  22) = (   0.8750000   0.8750000   0.1250000  )
        23           Si  tau(  23) = (   0.3750000   0.3750000   0.6250000  )
        24           Si  tau(  24) = (   0.8750000   0.3750000   0.6250000  )
        25           Si  tau(  25) = (   0.3750000   0.8750000   0.6250000  )
        26           Si  tau(  26) = (   0.8750000   0.8750000   0.6250000  )
        27           Si  tau(  27) = (   0.1250000   0.1250000   0.1250000  )
        28           Si  tau(  28) = (   0.6250000   0.1250000   0.1250000  )
        29           Si  tau(  29) = (   0.1250000   0.6250000   0.1250000  )
        30           Si  tau(  30) = (   0.6250000   0.6250000   0.1250000  )
        31           Si  tau(  31) = (   0.1250000   0.1250000   0.6250000  )
        32           Si  tau(  32) = (   0.6250000   0.1250000   0.6250000  )
        33           Si  tau(  33) = (   0.1250000   0.6250000   0.6250000  )
        34           Si  tau(  34) = (   0.6250000   0.6250000   0.6250000  )
        35           Si  tau(  35) = (   0.3750000   0.1250000   0.3750000  )
        36           Si  tau(  36) = (   0.8750000   0.1250000   0.3750000  )
        37           Si  tau(  37) = (   0.3750000   0.6250000   0.3750000  )
        38           Si  tau(  38) = (   0.8750000   0.6250000   0.3750000  )
        39           Si  tau(  39) = (   0.1250000   0.3750000   0.3750000  )
        40           Si  tau(  40) = (   0.6250000   0.3750000   0.3750000  )
        41           Si  tau(  41) = (   0.1250000   0.8750000   0.3750000  )
        42           Si  tau(  42) = (   0.6250000   0.8750000   0.3750000  )

     number of k points=    12
                       cart. coord. in units 2pi/alat
        k(    1) = (   0.1250000   0.1250000   0.1250000), wk =   0.1250000
        k(    2) = (   0.1250000   0.1250000   0.3750000), wk =   0.1250000
        k(    3) = (   0.1250000   0.3750000   0.3750000), wk =   0.2500000
        k(    4) = (   0.3750000   0.3750000   0.3750000), wk =   0.1250000
        k(    5) = (   0.1250000  -0.1250000   0.1250000), wk =   0.1250000
        k(    6) = (   0.1250000  -0.1250000   0.3750000), wk =   0.1250000
        k(    7) = (   0.3750000  -0.1250000   0.1250000), wk =   0.2500000
        k(    8) = (  -0.3750000  -0.1250000  -0.1250000), wk =   0.2500000
        k(    9) = (   0.3750000  -0.1250000   0.3750000), wk =   0.2500000
        k(   10) = (   0.3750000  -0.3750000   0.1250000), wk =   0.1250000
        k(   11) = (  -0.3750000  -0.3750000  -0.1250000), wk =   0.1250000
        k(   12) = (   0.3750000  -0.3750000   0.3750000), wk =   0.1250000

     Dense  grid:   698355 G-vectors     FFT dimensions: ( 120, 120, 120)

     Estimated max dynamical RAM per process >      74.40 MB

     Estimated total dynamical RAM >       2.62 GB

     Initial potential from superposition of free atoms

     starting charge  167.97676, renormalised to  168.00000
     Starting wfcs are  168 randomized atomic wfcs

     total cpu time spent up to now is       24.9 secs

     Self-consistent Calculation

     iteration #  1     ecut=    70.00 Ry     beta= 0.70
     Davidson diagonalization with overlap
     ethr =  1.00E-02,  avg # of iterations =  2.0

     Threshold (ethr) on eigenvalues was too large:
     Diagonalizing with lowered threshold

     Davidson diagonalization with overlap
     ethr =  8.56E-04,  avg # of iterations =  3.8

     total cpu time spent up to now is      177.9 secs

     total energy              =    -326.26481386 Ry
     estimated scf accuracy    <       1.79609276 Ry

     iteration #  2     ecut=    70.00 Ry     beta= 0.70
     Davidson diagonalization with overlap
     ethr =  1.07E-03,  avg # of iterations = 13.9

     total cpu time spent up to now is      463.2 secs

     total energy              =    -323.48805306 Ry
     estimated scf accuracy    <      33.22176828 Ry

     iteration #  3     ecut=    70.00 Ry     beta= 0.70
     Davidson diagonalization with overlap
     ethr =  1.07E-03,  avg # of iterations = 10.4

     total cpu time spent up to now is      682.0 secs

     total energy              =    -326.74209267 Ry
     estimated scf accuracy    <       1.28946196 Ry

     iteration #  4     ecut=    70.00 Ry     beta= 0.70
     Davidson diagonalization with overlap
     ethr =  7.68E-04,  avg # of iterations = 10.0

     total cpu time spent up to now is      883.9 secs

     total energy              =    -326.83862221 Ry
     estimated scf accuracy    <       2.32528755 Ry

     iteration #  5     ecut=    70.00 Ry     beta= 0.70
     Davidson diagonalization with overlap
     ethr =  7.68E-04,  avg # of iterations =  5.4

     total cpu time spent up to now is     1006.1 secs

     total energy              =    -326.94910454 Ry
     estimated scf accuracy    <       0.34625953 Ry

     iteration #  6     ecut=    70.00 Ry     beta= 0.70
     Davidson diagonalization with overlap
     ethr =  2.06E-04,  avg # of iterations =  8.0

     total cpu time spent up to now is     1175.0 secs

     total energy              =    -327.02945979 Ry
     estimated scf accuracy    <       0.09997056 Ry

     iteration #  7     ecut=    70.00 Ry     beta= 0.70
     Davidson diagonalization with overlap
     ethr =  5.95E-05,  avg # of iterations = 11.4

     total cpu time spent up to now is     1407.6 secs

     total energy              =    -327.03660737 Ry
     estimated scf accuracy    <       0.11878369 Ry

     iteration #  8     ecut=    70.00 Ry     beta= 0.70
     Davidson diagonalization with overlap
     ethr =  5.95E-05,  avg # of iterations =  1.8

     total cpu time spent up to now is     1467.7 secs

     total energy              =    -327.02142230 Ry
     estimated scf accuracy    <       0.09295762 Ry

     iteration #  9     ecut=    70.00 Ry     beta= 0.70
     Davidson diagonalization with overlap
     ethr =  5.53E-05,  avg # of iterations = 10.8

     total cpu time spent up to now is     1678.5 secs

     total energy              =    -327.03401379 Ry
     estimated scf accuracy    <       0.02236272 Ry

     iteration # 10     ecut=    70.00 Ry     beta= 0.70
     Davidson diagonalization with overlap
     c_bands:  1 eigenvalues not converged
     ethr =  1.33E-05,  avg # of iterations =  8.6

     total cpu time spent up to now is     1850.3 secs

     total energy              =    -327.03488323 Ry
     estimated scf accuracy    <       0.00970824 Ry

     iteration # 11     ecut=    70.00 Ry     beta= 0.70
     Davidson diagonalization with overlap
     c_bands:  1 eigenvalues not converged
     c_bands:  1 eigenvalues not converged
     c_bands:  1 eigenvalues not converged
     c_bands:  1 eigenvalues not converged
     ethr =  5.78E-06,  avg # of iterations = 14.6

     total cpu time spent up to now is     2128.8 secs

     total energy              =    -327.03696155 Ry
     estimated scf accuracy    <       0.01707473 Ry

     iteration # 12     ecut=    70.00 Ry     beta= 0.70
     Davidson diagonalization with overlap
     c_bands:  1 eigenvalues not converged
     ethr =  5.78E-06,  avg # of iterations =  7.3

     total cpu time spent up to now is     2280.3 secs

     total energy              =    -327.03620490 Ry
     estimated scf accuracy    <       0.00770733 Ry

     iteration # 13     ecut=    70.00 Ry     beta= 0.70
     Davidson diagonalization with overlap
     c_bands:  1 eigenvalues not converged
     c_bands:  1 eigenvalues not converged
     ethr =  4.59E-06,  avg # of iterations = 15.5

     total cpu time spent up to now is     2583.4 secs

     total energy              =    -327.03852839 Ry
     estimated scf accuracy    <       0.03366400 Ry

     iteration # 14     ecut=    70.00 Ry     beta= 0.70
     Davidson diagonalization with overlap
     ethr =  4.59E-06,  avg # of iterations =  2.5

     total cpu time spent up to now is     2651.1 secs

     total energy              =    -327.03658914 Ry
     estimated scf accuracy    <       0.02666172 Ry

     iteration # 15     ecut=    70.00 Ry     beta= 0.70
     Davidson diagonalization with overlap
     ethr =  4.59E-06,  avg # of iterations = 10.2

     total cpu time spent up to now is     2857.9 secs

     total energy              =    -327.03700544 Ry
     estimated scf accuracy    <       0.00572552 Ry

     iteration # 16     ecut=    70.00 Ry     beta= 0.70
     Davidson diagonalization with overlap
     ethr =  3.41E-06,  avg # of iterations =  7.6

     total cpu time spent up to now is     3016.1 secs

     total energy              =    -327.03754908 Ry
     estimated scf accuracy    <       0.00102262 Ry

     iteration # 17     ecut=    70.00 Ry     beta= 0.70
     Davidson diagonalization with overlap
     c_bands:  1 eigenvalues not converged
     ethr =  6.09E-07,  avg # of iterations = 14.2

     total cpu time spent up to now is     3296.0 secs

     total energy              =    -327.03775993 Ry
     estimated scf accuracy    <       0.00172582 Ry

     iteration # 18     ecut=    70.00 Ry     beta= 0.70
     Davidson diagonalization with overlap
     ethr =  6.09E-07,  avg # of iterations =  1.9

     total cpu time spent up to now is     3353.7 secs

     total energy              =    -327.03768029 Ry
     estimated scf accuracy    <       0.00112571 Ry

     iteration # 19     ecut=    70.00 Ry     beta= 0.70
     Davidson diagonalization with overlap
     c_bands:  1 eigenvalues not converged
     ethr =  6.09E-07,  avg # of iterations =  5.4

     total cpu time spent up to now is     3469.8 secs

     total energy              =    -327.03768542 Ry
     estimated scf accuracy    <       0.00042137 Ry

     iteration # 20     ecut=    70.00 Ry     beta= 0.70
     Davidson diagonalization with overlap
     c_bands:  1 eigenvalues not converged
     ethr =  2.51E-07,  avg # of iterations = 11.7

     total cpu time spent up to now is     3701.8 secs

     total energy              =    -327.03778910 Ry
     estimated scf accuracy    <       0.00009290 Ry

     iteration # 21     ecut=    70.00 Ry     beta= 0.70
     Davidson diagonalization with overlap
     ethr =  5.53E-08,  avg # of iterations = 10.2

     total cpu time spent up to now is     3907.4 secs

     total energy              =    -327.03779809 Ry
     estimated scf accuracy    <       0.00024360 Ry

     iteration # 22     ecut=    70.00 Ry     beta= 0.70
     Davidson diagonalization with overlap
     ethr =  5.53E-08,  avg # of iterations =  1.2

     total cpu time spent up to now is     3952.4 secs

     total energy              =    -327.03778466 Ry
     estimated scf accuracy    <       0.00021934 Ry

     iteration # 23     ecut=    70.00 Ry     beta= 0.70
     Davidson diagonalization with overlap
     ethr =  5.53E-08,  avg # of iterations =  2.5

     total cpu time spent up to now is     4018.7 secs

     total energy              =    -327.03777994 Ry
     estimated scf accuracy    <       0.00014098 Ry

     iteration # 24     ecut=    70.00 Ry     beta= 0.70
     Davidson diagonalization with overlap
     ethr =  5.53E-08,  avg # of iterations =  5.2

     total cpu time spent up to now is     4131.4 secs

     total energy              =    -327.03777648 Ry
     estimated scf accuracy    <       0.00007480 Ry

     iteration # 25     ecut=    70.00 Ry     beta= 0.70
     Davidson diagonalization with overlap
     c_bands:  1 eigenvalues not converged
     c_bands:  1 eigenvalues not converged
     ethr =  4.45E-08,  avg # of iterations = 11.2

     total cpu time spent up to now is     4353.5 secs

     End of self-consistent calculation

          k = 0.1250 0.1250 0.1250 ( 87260 PWs)   bands (ev):

    -8.6035  -7.7545  -7.7441  -7.7395  -7.1378  -7.0748  -6.9183  -6.7187
    -6.6636  -6.5995  -6.2996  -6.2746  -6.0215  -5.8242  -5.8028  -5.5569
    -5.4822  -5.2308  -4.8068  -4.6896  -4.5885  -4.5802  -4.5211  -4.4674
    -4.2832  -3.7813  -3.6599  -3.5480  -3.4297  -3.2896  -3.1667  -3.0938
    -3.0337  -2.9145  -2.7454  -2.3105  -2.1885  -2.0667  -1.5219  -1.4333
    -1.2206  -0.9042  -0.8455  -0.7695  -0.7474  -0.7178  -0.6177  -0.5783
    -0.4642  -0.3659  -0.2108  -0.0304   0.0101   0.0693   0.1138   0.2307
     0.3207   0.4030   0.5642   0.6629   0.7491   0.8117   0.8682   0.9024
     0.9817   0.9925   1.1387   1.2155   1.2392   1.3623   1.4113   1.4876
     1.5547   1.6257   1.6780   1.7446   1.8414   1.8415   1.9550   2.0253
     2.0868   2.1980   2.2381   2.3351

          k = 0.1250 0.1250 0.3750 ( 87321 PWs)   bands (ev):

    -8.5881  -7.8084  -7.7460  -7.7222  -7.1851  -7.0678  -6.9542  -6.7133
    -6.6597  -6.5031  -6.2615  -6.2279  -5.9712  -5.8385  -5.8031  -5.5751
    -5.4857  -5.3503  -4.8147  -4.6788  -4.5802  -4.5717  -4.5116  -4.4681
    -4.3380  -3.8375  -3.6158  -3.5500  -3.4764  -3.3331  -3.1909  -3.0763
    -3.0118  -2.8406  -2.5488  -2.3601  -2.2041  -2.0437  -1.6026  -1.4565
    -1.2778  -0.9025  -0.8613  -0.7572  -0.7539  -0.6628  -0.6299  -0.5353
    -0.5347  -0.2956  -0.2241  -0.0317  -0.0188   0.0876   0.0997   0.1862
     0.3241   0.3468   0.4816   0.6697   0.6747   0.6950   0.8651   0.9099
     0.9294   1.0163   1.2722   1.2779   1.3980   1.4075   1.4450   1.5823
     1.5981   1.6909   1.6915   1.8353   1.9547   1.9549   2.0172   2.0216
     2.1495   2.1758   2.2504   2.2564

          k = 0.1250 0.3750 0.3750 ( 87268 PWs)   bands (ev):

    -8.5706  -7.8085  -7.7936  -7.7156  -7.2109  -7.1278  -6.9719  -6.6546
    -6.5536  -6.5028  -6.2560  -6.2225  -5.9845  -5.7939  -5.7727  -5.5084
    -5.4909  -5.3119  -4.9472  -4.7742  -4.7057  -4.6193  -4.5469  -4.4728
    -4.3113  -3.8502  -3.5967  -3.5413  -3.4251  -3.2221  -3.1278  -2.9824
    -2.9003  -2.8080  -2.5305  -2.4078  -2.3521  -2.1435  -1.6679  -1.5200
    -1.3406  -0.9519  -0.8525  -0.8296  -0.7621  -0.6838  -0.5521  -0.5051
    -0.4120  -0.2980  -0.1640  -0.0856  -0.0034   0.0688   0.1670   0.2578
     0.3500   0.3798   0.5333   0.6586   0.7264   0.8006   0.8219   0.9565
     1.0185   1.1004   1.1654   1.2554   1.2804   1.3632   1.4520   1.5572
     1.6008   1.6509   1.7474   1.8122   1.8692   1.9375   2.0484   2.0874
     2.1096   2.1844   2.2262   2.3209

          k = 0.3750 0.3750 0.3750 ( 87278 PWs)   bands (ev):

    -8.5538  -7.7985  -7.7799  -7.7758  -7.2300  -7.1909  -6.9954  -6.5299
    -6.5150  -6.5080  -6.2619  -6.2009  -5.9556  -5.7632  -5.7220  -5.5016
    -5.4786  -5.2894  -4.9496  -4.9169  -4.8038  -4.6668  -4.6023  -4.5379
    -4.3385  -3.7393  -3.5693  -3.5591  -3.3499  -3.1867  -2.9942  -2.9423
    -2.8964  -2.7753  -2.6189  -2.4864  -2.2913  -2.2459  -1.6368  -1.5672
    -1.4935  -0.9639  -0.8327  -0.8013  -0.7561  -0.6299  -0.5323  -0.4785
    -0.3597  -0.2941  -0.1442  -0.0750   0.0080   0.1348   0.2431   0.2587
     0.3909   0.4244   0.5841   0.6284   0.6992   0.7930   0.8460   0.9147
     0.9978   1.0686   1.1322   1.2157   1.2454   1.3734   1.4209   1.4762
     1.5140   1.6301   1.7432   1.7921   1.8500   1.8917   1.9630   2.0835
     2.1029   2.1574   2.1857   2.2596

          k = 0.1250-0.1250 0.1250 ( 87260 PWs)   bands (ev):

    -8.6035  -7.7563  -7.7442  -7.7377  -7.1313  -7.0821  -6.9200  -6.7144
    -6.6646  -6.6004  -6.2895  -6.2801  -6.0298  -5.8218  -5.7827  -5.5905
    -5.4821  -5.2335  -4.7938  -4.6920  -4.6316  -4.5070  -4.5002  -4.4469
    -4.3053  -3.8377  -3.6926  -3.5982  -3.3153  -3.3101  -3.1659  -3.0981
    -3.0329  -2.8965  -2.7861  -2.3087  -2.1435  -2.0522  -1.5459  -1.4253
    -1.2330  -0.8760  -0.8474  -0.7845  -0.7470  -0.7275  -0.5745  -0.5583
    -0.5275  -0.3925  -0.1900  -0.0173   0.0196   0.0737   0.0817   0.1561
     0.3079   0.4548   0.5751   0.6819   0.8126   0.8205   0.9177   0.9214
     0.9728   0.9986   1.0639   1.1543   1.1944   1.2729   1.4525   1.5144
     1.6039   1.6146   1.6436   1.7449   1.7838   1.9071   1.9563   2.0430
     2.1267   2.1406   2.2618   2.2960

          k = 0.1250-0.1250 0.3750 ( 87321 PWs)   bands (ev):

    -8.5881  -7.8085  -7.7478  -7.7203  -7.1814  -7.0737  -6.9538  -6.7097
    -6.6604  -6.5044  -6.2570  -6.2269  -5.9832  -5.8363  -5.7833  -5.5950
    -5.4951  -5.3526  -4.8022  -4.6880  -4.6170  -4.5029  -4.4784  -4.4414
    -4.3735  -3.8888  -3.6584  -3.5967  -3.4016  -3.3249  -3.1917  -3.0724
    -3.0046  -2.8339  -2.5871  -2.3694  -2.1318  -2.0371  -1.6225  -1.4570
    -1.2645  -0.9176  -0.8484  -0.8147  -0.7218  -0.6537  -0.6297  -0.5785
    -0.4837  -0.3266  -0.2209   0.0035   0.0111   0.0499   0.1116   0.1627
     0.2578   0.3638   0.4826   0.5901   0.6948   0.7850   0.8729   0.9590
     1.0004   1.0578   1.1670   1.2405   1.2949   1.3710   1.3954   1.5332
     1.6811   1.7033   1.7708   1.8496   1.9272   1.9721   1.9829   2.0419
     2.1582   2.2418   2.2579   2.3395

          k = 0.3750-0.1250 0.1250 ( 87321 PWs)   bands (ev):

    -8.5861  -7.8206  -7.7301  -7.7282  -7.1585  -7.1399  -6.9349  -6.6602
    -6.6019  -6.5499  -6.2893  -6.2767  -6.0418  -5.7841  -5.7626  -5.5368
    -5.4630  -5.1763  -4.9505  -4.7665  -4.6954  -4.5977  -4.5372  -4.4763
    -4.2809  -3.8526  -3.6445  -3.5881  -3.3247  -3.2101  -3.1540  -2.9877
    -2.9049  -2.8555  -2.7279  -2.3471  -2.2603  -2.1298  -1.6936  -1.3724
    -1.3340  -0.9264  -0.8683  -0.7921  -0.7670  -0.6816  -0.6366  -0.5843
    -0.3922  -0.3179  -0.1705  -0.0310   0.0086   0.0315   0.1180   0.2046
     0.3194   0.4057   0.5264   0.6092   0.7296   0.8486   0.9260   0.9645
     1.0302   1.1033   1.1554   1.2145   1.2988   1.3495   1.4877   1.5258
     1.5587   1.6554   1.6815   1.7744   1.8893   1.9067   1.9895   2.1062
     2.1292   2.2209   2.3190   2.3564

          k =-0.3750-0.1250-0.1250 ( 87321 PWs)   bands (ev):

    -8.5861  -7.8203  -7.7300  -7.7285  -7.1694  -7.1282  -6.9346  -6.6614
    -6.6012  -6.5506  -6.2987  -6.2713  -6.0350  -5.8029  -5.7622  -5.4949
    -5.4719  -5.1738  -4.9541  -4.7720  -4.6890  -4.6269  -4.5637  -4.4881
    -4.2687  -3.7934  -3.6033  -3.5935  -3.3736  -3.2066  -3.1502  -3.0074
    -2.8935  -2.8702  -2.6690  -2.3889  -2.2812  -2.1511  -1.6864  -1.3839
    -1.2969  -0.9363  -0.8731  -0.8001  -0.7552  -0.6760  -0.6521  -0.5943
    -0.3602  -0.2549  -0.2321  -0.0402   0.0036   0.0521   0.1406   0.2103
     0.3206   0.3898   0.4704   0.6968   0.7240   0.7852   0.8654   0.9886
     1.0391   1.0978   1.1918   1.2281   1.3028   1.3959   1.4350   1.5716
     1.6104   1.6996   1.7238   1.7997   1.8317   1.9045   1.9893   2.0050
     2.0924   2.1756   2.2603   2.3359

          k = 0.3750-0.1250 0.3750 ( 87268 PWs)   bands (ev):

    -8.5706  -7.8089  -7.7938  -7.7151  -7.2061  -7.1343  -6.9710  -6.6534
    -6.5524  -6.5045  -6.2520  -6.2216  -5.9934  -5.7759  -5.7722  -5.5410
    -5.4879  -5.3153  -4.9434  -4.7717  -4.7047  -4.5923  -4.5265  -4.4566
    -4.3234  -3.9031  -3.6286  -3.5554  -3.3869  -3.2231  -3.1271  -2.9596
    -2.9076  -2.8033  -2.5822  -2.4291  -2.2581  -2.1328  -1.6701  -1.5381
    -1.3314  -0.9476  -0.8957  -0.8207  -0.7462  -0.6834  -0.5593  -0.4917
    -0.4355  -0.2714  -0.1889  -0.0466   0.0041   0.0433   0.1359   0.2095
     0.3629   0.4410   0.5623   0.6121   0.7117   0.8076   0.8587   0.9378
     1.0238   1.0982   1.1842   1.2358   1.2897   1.3401   1.4097   1.5204
     1.5743   1.6463   1.6858   1.8551   1.8964   2.0018   2.0548   2.0897
     2.1381   2.2170   2.2552   2.3451

          k = 0.3750-0.3750 0.1250 ( 87268 PWs)   bands (ev):

    -8.5694  -7.8089  -7.7912  -7.7148  -7.2138  -7.1650  -6.9572  -6.6064
    -6.5295  -6.5121  -6.3028  -6.2621  -6.0286  -5.7354  -5.7054  -5.5340
    -5.4538  -5.1444  -4.9454  -4.9368  -4.7738  -4.6553  -4.5973  -4.5142
    -4.3234  -3.7407  -3.6473  -3.5700  -3.2473  -3.1949  -3.0764  -2.9526
    -2.8800  -2.7931  -2.7586  -2.4272  -2.2159  -2.2132  -1.7145  -1.5293
    -1.3348  -0.9643  -0.8294  -0.7815  -0.7430  -0.6600  -0.6378  -0.5702
    -0.3347  -0.1926  -0.1183  -0.0545  -0.0206   0.1353   0.1359   0.2120
     0.3554   0.3557   0.4285   0.5419   0.7071   0.7508   0.8714   0.8954
     0.9953   1.0806   1.1907   1.2814   1.3337   1.3844   1.4591   1.5140
     1.6544   1.6922   1.7477   1.7939   1.7942   1.9247   2.0002   2.0727
     2.1208   2.1891   2.2800   2.3383

          k =-0.3750-0.3750-0.1250 ( 87268 PWs)   bands (ev):

    -8.5694  -7.8072  -7.7930  -7.7146  -7.2189  -7.1591  -6.9575  -6.6051
    -6.5322  -6.5113  -6.3093  -6.2590  -6.0230  -5.7552  -5.7107  -5.4752
    -5.4688  -5.1435  -4.9559  -4.9286  -4.7853  -4.6717  -4.6099  -4.5436
    -4.3032  -3.6843  -3.6086  -3.5727  -3.3121  -3.2089  -3.0433  -2.9568
    -2.8769  -2.8302  -2.7027  -2.4074  -2.2740  -2.2447  -1.6976  -1.5542
    -1.2930  -0.9601  -0.8353  -0.7816  -0.7329  -0.6751  -0.6548  -0.5706
    -0.2790  -0.1986  -0.0965  -0.0505  -0.0326   0.0837   0.1326   0.2257
     0.3367   0.3462   0.4742   0.5614   0.6828   0.7036   0.8123   0.9967
     1.0728   1.0865   1.1823   1.1985   1.3098   1.4064   1.4658   1.6055
     1.6158   1.6877   1.7865   1.7949   1.8831   1.9431   1.9549   2.0351
     2.0834   2.1437   2.1500   2.3608

          k = 0.3750-0.3750 0.3750 ( 87278 PWs)   bands (ev):

    -8.5538  -7.8003  -7.7797  -7.7743  -7.2150  -7.2073  -6.9943  -6.5280
    -6.5161  -6.5085  -6.2585  -6.1998  -5.9641  -5.7438  -5.7165  -5.5405
    -5.4792  -5.2914  -4.9395  -4.9275  -4.7912  -4.6422  -4.5929  -4.5130
    -4.3574  -3.7834  -3.6322  -3.5473  -3.2916  -3.1820  -3.0254  -2.9138
    -2.8981  -2.7652  -2.6492  -2.5176  -2.2314  -2.2162  -1.6544  -1.5284
    -1.5277  -0.9620  -0.8923  -0.8094  -0.7159  -0.6008  -0.5268  -0.4945
    -0.4096  -0.2141  -0.1759  -0.0753  -0.0213   0.1904   0.2111   0.2681
     0.3498   0.4073   0.6215   0.6702   0.6774   0.8005   0.8447   0.9487
     0.9579   1.0269   1.0880   1.2409   1.2829   1.3308   1.3618   1.5307
     1.5484   1.6624   1.6728   1.7938   1.8428   1.8532   1.9493   2.0537
     2.1117   2.2237   2.2432   2.3097

     highest occupied level (ev):     2.3608

!    total energy              =    -327.03778628 Ry
     estimated scf accuracy    <       0.00000093 Ry

     The total energy is the sum of the following terms:
     one-electron contribution =     -81.49022807 Ry
     hartree contribution      =      90.16850087 Ry
     xc contribution           =     -94.38504114 Ry
     ewald contribution        =    -241.33101794 Ry

     convergence has been achieved in  25 iterations

     Forces acting on atoms (cartesian axes, Ry/au):

     atom    1 type  1   force =    -0.00176481   -0.00176481   -0.00799662
     atom    2 type  1   force =    -0.01307838    0.01307838    0.00125645
     atom    3 type  1   force =     0.01307838   -0.01307838    0.00125645
     atom    4 type  1   force =     0.00176481    0.00176481   -0.00799662
     atom    5 type  1   force =    -0.00151489   -0.00151489   -0.00491397
     atom    6 type  1   force =    -0.00648584    0.00648584    0.00138109
     atom    7 type  1   force =     0.00648584   -0.00648584    0.00138109
     atom    8 type  1   force =     0.00151489    0.00151489   -0.00491397
     atom    9 type  1   force =     0.00000000    0.00000000   -0.02921112
     atom   10 type  1   force =     0.00000000    0.00000000    0.00323561
     atom   11 type  1   force =     0.00170813   -0.00102693   -0.00111505
     atom   12 type  1   force =    -0.00170813    0.00102693   -0.00111505
     atom   13 type  1   force =     0.00822543    0.01122284    0.01932403
     atom   14 type  1   force =    -0.00822543   -0.01122284    0.01932403
     atom   15 type  1   force =    -0.00102693    0.00170813   -0.00111505
     atom   16 type  1   force =     0.00102693   -0.00170813   -0.00111505
     atom   17 type  1   force =     0.01122284    0.00822543    0.01932403
     atom   18 type  1   force =    -0.01122284   -0.00822543    0.01932403
     atom   19 type  1   force =    -0.00393301   -0.00393301   -0.00701085
     atom   20 type  1   force =     0.01225959   -0.02207923    0.00304616
     atom   21 type  1   force =    -0.02207923    0.01225959    0.00304616
     atom   22 type  1   force =    -0.00532371   -0.00532371    0.01094803
     atom   23 type  1   force =    -0.00257895   -0.00257895   -0.00245503
     atom   24 type  1   force =     0.02360418    0.00740972   -0.00590587
     atom   25 type  1   force =     0.00740972    0.02360418   -0.00590587
     atom   26 type  1   force =     0.01113789    0.01113789   -0.00547115
     atom   27 type  1   force =     0.00532371    0.00532371    0.01094803
     atom   28 type  1   force =     0.02207923   -0.01225959    0.00304616
     atom   29 type  1   force =    -0.01225959    0.02207923    0.00304616
     atom   30 type  1   force =     0.00393301    0.00393301   -0.00701085
     atom   31 type  1   force =    -0.01113789   -0.01113789   -0.00547115
     atom   32 type  1   force =    -0.00740972   -0.02360418   -0.00590587
     atom   33 type  1   force =    -0.02360418   -0.00740972   -0.00590587
     atom   34 type  1   force =     0.00257895    0.00257895   -0.00245503
     atom   35 type  1   force =    -0.00585063   -0.02628082    0.00205919
     atom   36 type  1   force =     0.01253759   -0.01253759   -0.01058960
     atom   37 type  1   force =    -0.00253444    0.00253444    0.00302251
     atom   38 type  1   force =     0.02628082    0.00585063    0.00205919
     atom   39 type  1   force =    -0.02628082   -0.00585063    0.00205919
     atom   40 type  1   force =     0.00253444   -0.00253444    0.00302251
     atom   41 type  1   force =    -0.01253759    0.01253759   -0.01058960
     atom   42 type  1   force =     0.00585063    0.02628082    0.00205919

     Total force =     0.119614     Total SCF correction =     0.001342


     Computing stress (Cartesian axis) and pressure

          total   stress  (Ry/bohr**3)                   (kbar)     P=      -33.96
  -0.00024524   0.00000187   0.00000000          -36.08        0.27        0.00
   0.00000187  -0.00024524   0.00000000            0.27      -36.08        0.00
   0.00000000   0.00000000  -0.00020211            0.00        0.00      -29.73


     Writing output data file ./Si64.save/

     init_run     :     14.15s CPU     24.75s WALL (       1 calls)
     electrons    :   2089.06s CPU   4328.68s WALL (       1 calls)
     forces       :      6.05s CPU     15.48s WALL (       1 calls)
     stress       :      8.20s CPU     10.64s WALL (       1 calls)

     Called by init_run:
     wfcinit      :     13.53s CPU     24.09s WALL (       1 calls)
     potinit      :      0.05s CPU      0.07s WALL (       1 calls)
     hinit0       :      0.06s CPU      0.07s WALL (       1 calls)

     Called by electrons:
     c_bands      :   2061.31s CPU   4296.29s WALL (      26 calls)
     sum_band     :     24.41s CPU     28.20s WALL (      26 calls)
     v_of_rho     :      0.95s CPU      1.07s WALL (      26 calls)
     mix_rho      :      2.35s CPU      2.97s WALL (      26 calls)

     Called by c_bands:
     init_us_2    :      1.96s CPU      3.00s WALL (     660 calls)
     cegterg      :   2031.86s CPU   4235.42s WALL (     312 calls)

     Called by *egterg:
     cdiaghg      :    545.13s CPU    720.20s WALL (    2790 calls)
     h_psi        :    576.71s CPU   1412.37s WALL (    2814 calls)
     g_psi        :      0.42s CPU      0.65s WALL (    2490 calls)

     Called by h_psi:
     h_psi:calbec :    325.25s CPU    854.73s WALL (    2814 calls)
     vloc_psi     :    186.94s CPU    280.05s WALL (    2814 calls)
     add_vuspsi   :     63.80s CPU    275.13s WALL (    2814 calls)

     General routines
     calbec       :    332.76s CPU    872.36s WALL (    2874 calls)
     fft          :      0.42s CPU      0.54s WALL (     268 calls)
     ffts         :      0.04s CPU      0.04s WALL (      26 calls)
     fftw         :    196.17s CPU    287.19s WALL (  172716 calls)

     Parallel routines
     fft_scatt_xy :     14.07s CPU     16.25s WALL (  173010 calls)
     fft_scatt_yz :    124.44s CPU    179.12s WALL (  173010 calls)

     PWSCF        :  35m18.38s CPU      1h13m WALL


   This run was terminated on:  20:43: 0  23Feb2022            

=------------------------------------------------------------------------------=
   JOB DONE.
=------------------------------------------------------------------------------=
