
     Program PWSCF v.6.7MaX starts on 23Feb2022 at 20:43: 1 

     This program is part of the open-source Quantum ESPRESSO suite
     for quantum simulation of materials; please cite
         "P. Giannozzi et al., J. Phys.:Condens. Matter 21 395502 (2009);
         "P. Giannozzi et al., J. Phys.:Condens. Matter 29 465901 (2017);
          URL http://www.quantum-espresso.org", 
     in publications or presentations arising from this work. More details at
     http://www.quantum-espresso.org/quote

     Parallel version (MPI), running on    36 processors

     MPI processes distributed on     1 nodes
     R & G space division:  proc/nbgrp/npool/nimage =      36
     Waiting for input...
     Reading input from standard input

     Current dimensions of program PWSCF are:
     Max number of different atomic species (ntypx) = 10
     Max number of k-points (npk) =  40000
     Max angular momentum in pseudopotentials (lmaxx) =  3

     Subspace diagonalization in iterative solution of the eigenvalue problem:
     a serial algorithm will be used

     Message from routine setup:
     using ibrav=0 with symmetry is DISCOURAGED, use correct ibrav instead

     Parallelization info
     --------------------
     sticks:   dense  smooth     PW     G-vecs:    dense   smooth      PW
     Min         264     264     70                19398    19398    2658
     Max         265     265     71                19400    19400    2663
     Sum        9517    9517   2537               698355   698355   95769



     bravais-lattice index     =            0
     lattice parameter (alat)  =      20.6660  a.u.
     unit-cell volume          =    8826.0878 (a.u.)^3
     number of atoms/cell      =           42
     number of atomic types    =            1
     number of electrons       =       168.00
     number of Kohn-Sham states=           84
     kinetic-energy cutoff     =      70.0000  Ry
     charge density cutoff     =     280.0000  Ry
     scf convergence threshold =      1.0E-06
     mixing beta               =       0.7000
     number of iterations used =            8  plain     mixing
     Exchange-correlation=  SLA  PW   PBE  PBE
                           (   1   4   3   4   0   0   0)

     celldm(1)=  20.665984  celldm(2)=   0.000000  celldm(3)=   0.000000
     celldm(4)=   0.000000  celldm(5)=   0.000000  celldm(6)=   0.000000

     crystal axes: (cart. coord. in units of alat)
               a(1) = (   1.000000   0.000000   0.000000 )  
               a(2) = (   0.000000   1.000000   0.000000 )  
               a(3) = (   0.000000   0.000000   1.000000 )  

     reciprocal axes: (cart. coord. in units 2 pi/alat)
               b(1) = (  1.000000  0.000000  0.000000 )  
               b(2) = (  0.000000  1.000000  0.000000 )  
               b(3) = (  0.000000  0.000000  1.000000 )  


     PseudoPot. # 1 for Si read from file:
     ./Si.pbe-rrkj.UPF
     MD5 check sum: cf7ab5690cd9a85b22c4813f7e365554
     Pseudo is Norm-conserving, Zval =  4.0
     Generated by new atomic code, or converted to UPF format
     Using radial grid of  883 points,  3 beta functions with: 
                l(1) =   0
                l(2) =   0
                l(3) =   1

     atomic species   valence    mass     pseudopotential
        Si             4.00    28.08600     Si( 1.00)

      4 Sym. Ops. (no inversion) found



   Cartesian axes

     site n.     atom                  positions (alat units)
         1           Si  tau(   1) = (   0.2500000   0.2500000   0.0000000  )
         2           Si  tau(   2) = (   0.7500000   0.2500000   0.0000000  )
         3           Si  tau(   3) = (   0.2500000   0.7500000   0.0000000  )
         4           Si  tau(   4) = (   0.7500000   0.7500000   0.0000000  )
         5           Si  tau(   5) = (   0.2500000   0.2500000   0.5000000  )
         6           Si  tau(   6) = (   0.7500000   0.2500000   0.5000000  )
         7           Si  tau(   7) = (   0.2500000   0.7500000   0.5000000  )
         8           Si  tau(   8) = (   0.7500000   0.7500000   0.5000000  )
         9           Si  tau(   9) = (   0.5000000   0.5000000   0.0000000  )
        10           Si  tau(  10) = (   0.5000000   0.5000000   0.5000000  )
        11           Si  tau(  11) = (   0.2500000   0.5000000   0.2500000  )
        12           Si  tau(  12) = (   0.7500000   0.5000000   0.2500000  )
        13           Si  tau(  13) = (   0.2500000   0.5000000   0.7500000  )
        14           Si  tau(  14) = (   0.7500000   0.5000000   0.7500000  )
        15           Si  tau(  15) = (   0.5000000   0.2500000   0.2500000  )
        16           Si  tau(  16) = (   0.5000000   0.7500000   0.2500000  )
        17           Si  tau(  17) = (   0.5000000   0.2500000   0.7500000  )
        18           Si  tau(  18) = (   0.5000000   0.7500000   0.7500000  )
        19           Si  tau(  19) = (   0.3750000   0.3750000   0.1250000  )
        20           Si  tau(  20) = (   0.8750000   0.3750000   0.1250000  )
        21           Si  tau(  21) = (   0.3750000   0.8750000   0.1250000  )
        22           Si  tau(  22) = (   0.8750000   0.8750000   0.1250000  )
        23           Si  tau(  23) = (   0.3750000   0.3750000   0.6250000  )
        24           Si  tau(  24) = (   0.8750000   0.3750000   0.6250000  )
        25           Si  tau(  25) = (   0.3750000   0.8750000   0.6250000  )
        26           Si  tau(  26) = (   0.8750000   0.8750000   0.6250000  )
        27           Si  tau(  27) = (   0.1250000   0.1250000   0.1250000  )
        28           Si  tau(  28) = (   0.6250000   0.1250000   0.1250000  )
        29           Si  tau(  29) = (   0.1250000   0.6250000   0.1250000  )
        30           Si  tau(  30) = (   0.6250000   0.6250000   0.1250000  )
        31           Si  tau(  31) = (   0.1250000   0.1250000   0.6250000  )
        32           Si  tau(  32) = (   0.6250000   0.1250000   0.6250000  )
        33           Si  tau(  33) = (   0.1250000   0.6250000   0.6250000  )
        34           Si  tau(  34) = (   0.6250000   0.6250000   0.6250000  )
        35           Si  tau(  35) = (   0.3750000   0.1250000   0.3750000  )
        36           Si  tau(  36) = (   0.8750000   0.1250000   0.3750000  )
        37           Si  tau(  37) = (   0.3750000   0.6250000   0.3750000  )
        38           Si  tau(  38) = (   0.8750000   0.6250000   0.3750000  )
        39           Si  tau(  39) = (   0.1250000   0.3750000   0.3750000  )
        40           Si  tau(  40) = (   0.6250000   0.3750000   0.3750000  )
        41           Si  tau(  41) = (   0.1250000   0.8750000   0.3750000  )
        42           Si  tau(  42) = (   0.6250000   0.8750000   0.3750000  )

     number of k points=    27
                       cart. coord. in units 2pi/alat
        k(    1) = (   0.1000000   0.1000000   0.1000000), wk =   0.0640000
        k(    2) = (   0.1000000   0.1000000   0.3000000), wk =   0.0640000
        k(    3) = (   0.1000000   0.1000000  -0.5000000), wk =   0.0320000
        k(    4) = (   0.1000000   0.3000000   0.3000000), wk =   0.1280000
        k(    5) = (   0.1000000   0.3000000  -0.5000000), wk =   0.0640000
        k(    6) = (   0.1000000  -0.5000000  -0.5000000), wk =   0.0640000
        k(    7) = (   0.3000000   0.3000000   0.3000000), wk =   0.0640000
        k(    8) = (   0.3000000   0.3000000  -0.5000000), wk =   0.0320000
        k(    9) = (   0.3000000  -0.5000000  -0.5000000), wk =   0.0640000
        k(   10) = (  -0.5000000  -0.5000000  -0.5000000), wk =   0.0160000
        k(   11) = (   0.1000000  -0.1000000   0.1000000), wk =   0.0640000
        k(   12) = (   0.1000000  -0.1000000   0.3000000), wk =   0.0640000
        k(   13) = (   0.3000000  -0.1000000   0.1000000), wk =   0.1280000
        k(   14) = (  -0.3000000  -0.1000000  -0.1000000), wk =   0.1280000
        k(   15) = (   0.1000000  -0.1000000  -0.5000000), wk =   0.0320000
        k(   16) = (  -0.5000000  -0.1000000   0.1000000), wk =   0.1280000
        k(   17) = (   0.3000000  -0.1000000   0.3000000), wk =   0.1280000
        k(   18) = (   0.3000000  -0.3000000   0.1000000), wk =   0.0640000
        k(   19) = (  -0.3000000  -0.3000000  -0.1000000), wk =   0.0640000
        k(   20) = (   0.3000000  -0.1000000  -0.5000000), wk =   0.0640000
        k(   21) = (  -0.5000000  -0.3000000   0.1000000), wk =   0.1280000
        k(   22) = (  -0.1000000  -0.5000000   0.3000000), wk =   0.1280000
        k(   23) = (  -0.5000000   0.5000000   0.1000000), wk =   0.0320000
        k(   24) = (   0.3000000  -0.3000000   0.3000000), wk =   0.0640000
        k(   25) = (   0.3000000  -0.3000000  -0.5000000), wk =   0.0320000
        k(   26) = (  -0.5000000  -0.3000000   0.3000000), wk =   0.1280000
        k(   27) = (  -0.5000000   0.5000000   0.3000000), wk =   0.0320000

     Dense  grid:   698355 G-vectors     FFT dimensions: ( 120, 120, 120)

     Estimated max dynamical RAM per process >     121.00 MB

     Estimated total dynamical RAM >       4.25 GB

     Initial potential from superposition of free atoms

     starting charge  167.97676, renormalised to  168.00000
     Starting wfcs are  168 randomized atomic wfcs

     total cpu time spent up to now is       51.6 secs

     Self-consistent Calculation

     iteration #  1     ecut=    70.00 Ry     beta= 0.70
     Davidson diagonalization with overlap
     ethr =  1.00E-02,  avg # of iterations =  2.0

     Threshold (ethr) on eigenvalues was too large:
     Diagonalizing with lowered threshold

     Davidson diagonalization with overlap
     ethr =  8.52E-04,  avg # of iterations =  3.3

     total cpu time spent up to now is      369.1 secs

     total energy              =    -326.27673772 Ry
     estimated scf accuracy    <       1.78381153 Ry

     iteration #  2     ecut=    70.00 Ry     beta= 0.70
     Davidson diagonalization with overlap
     c_bands:  1 eigenvalues not converged
     c_bands:  1 eigenvalues not converged
     ethr =  1.06E-03,  avg # of iterations = 14.1

     total cpu time spent up to now is     1017.4 secs

     total energy              =    -323.53777854 Ry
     estimated scf accuracy    <      32.51159772 Ry

     iteration #  3     ecut=    70.00 Ry     beta= 0.70
     Davidson diagonalization with overlap
     ethr =  1.06E-03,  avg # of iterations = 11.5

     total cpu time spent up to now is     1549.8 secs

     total energy              =    -326.74377714 Ry
     estimated scf accuracy    <       1.37542411 Ry

     iteration #  4     ecut=    70.00 Ry     beta= 0.70
     Davidson diagonalization with overlap
     ethr =  8.19E-04,  avg # of iterations =  7.8

     total cpu time spent up to now is     1922.9 secs

     total energy              =    -326.86069801 Ry
     estimated scf accuracy    <       2.03355729 Ry

     iteration #  5     ecut=    70.00 Ry     beta= 0.70
     Davidson diagonalization with overlap
     ethr =  8.19E-04,  avg # of iterations =  4.1

     total cpu time spent up to now is     2148.6 secs

     total energy              =    -326.94141103 Ry
     estimated scf accuracy    <       0.34851955 Ry

     iteration #  6     ecut=    70.00 Ry     beta= 0.70
     Davidson diagonalization with overlap
     ethr =  2.07E-04,  avg # of iterations =  7.3

     total cpu time spent up to now is     2499.7 secs

     total energy              =    -327.02974507 Ry
     estimated scf accuracy    <       0.10198699 Ry

     iteration #  7     ecut=    70.00 Ry     beta= 0.70
     Davidson diagonalization with overlap
     c_bands:  1 eigenvalues not converged
     ethr =  6.07E-05,  avg # of iterations =  6.5

     total cpu time spent up to now is     2812.3 secs

     total energy              =    -327.02545744 Ry
     estimated scf accuracy    <       0.08194492 Ry

     iteration #  8     ecut=    70.00 Ry     beta= 0.70
     Davidson diagonalization with overlap
     c_bands:  1 eigenvalues not converged
     ethr =  4.88E-05,  avg # of iterations =  8.0

     total cpu time spent up to now is     3185.0 secs

     total energy              =    -327.03154693 Ry
     estimated scf accuracy    <       0.01246744 Ry

     iteration #  9     ecut=    70.00 Ry     beta= 0.70
     Davidson diagonalization with overlap
     c_bands:  2 eigenvalues not converged
     c_bands:  2 eigenvalues not converged
     c_bands:  1 eigenvalues not converged
     c_bands:  1 eigenvalues not converged
     ethr =  7.42E-06,  avg # of iterations = 14.6

     total cpu time spent up to now is     3838.1 secs

     total energy              =    -327.03793385 Ry
     estimated scf accuracy    <       0.01957562 Ry

     iteration # 10     ecut=    70.00 Ry     beta= 0.70
     Davidson diagonalization with overlap
     ethr =  7.42E-06,  avg # of iterations =  2.4

     total cpu time spent up to now is     3985.3 secs

     total energy              =    -327.03571164 Ry
     estimated scf accuracy    <       0.01624335 Ry

     iteration # 11     ecut=    70.00 Ry     beta= 0.70
     Davidson diagonalization with overlap
     c_bands:  1 eigenvalues not converged
     ethr =  7.42E-06,  avg # of iterations = 10.2

     total cpu time spent up to now is     4446.3 secs

     total energy              =    -327.03687453 Ry
     estimated scf accuracy    <       0.00322156 Ry

     iteration # 12     ecut=    70.00 Ry     beta= 0.70
     Davidson diagonalization with overlap
     c_bands:  1 eigenvalues not converged
     ethr =  1.92E-06,  avg # of iterations = 10.4

     total cpu time spent up to now is     4925.9 secs

     total energy              =    -327.03758374 Ry
     estimated scf accuracy    <       0.00044763 Ry

     iteration # 13     ecut=    70.00 Ry     beta= 0.70
     Davidson diagonalization with overlap
     c_bands:  1 eigenvalues not converged
     c_bands:  1 eigenvalues not converged
     ethr =  2.66E-07,  avg # of iterations = 14.1

     total cpu time spent up to now is     5562.8 secs

     total energy              =    -327.03761407 Ry
     estimated scf accuracy    <       0.00303879 Ry

     iteration # 14     ecut=    70.00 Ry     beta= 0.70
     Davidson diagonalization with overlap
     c_bands:  1 eigenvalues not converged
     ethr =  2.66E-07,  avg # of iterations =  8.7

     total cpu time spent up to now is     5961.5 secs

     total energy              =    -327.03747584 Ry
     estimated scf accuracy    <       0.00151636 Ry

     iteration # 15     ecut=    70.00 Ry     beta= 0.70
     Davidson diagonalization with overlap
     c_bands:  1 eigenvalues not converged
     ethr =  2.66E-07,  avg # of iterations =  9.7

     total cpu time spent up to now is     6411.8 secs

     total energy              =    -327.03759730 Ry
     estimated scf accuracy    <       0.00030548 Ry

     iteration # 16     ecut=    70.00 Ry     beta= 0.70
     Davidson diagonalization with overlap
     ethr =  1.82E-07,  avg # of iterations =  1.9

     total cpu time spent up to now is     6542.3 secs

     total energy              =    -327.03758454 Ry
     estimated scf accuracy    <       0.00018123 Ry

     iteration # 17     ecut=    70.00 Ry     beta= 0.70
     Davidson diagonalization with overlap
     c_bands:  1 eigenvalues not converged
     ethr =  1.08E-07,  avg # of iterations =  9.7

     total cpu time spent up to now is     6979.3 secs

     total energy              =    -327.03760204 Ry
     estimated scf accuracy    <       0.00002625 Ry

     iteration # 18     ecut=    70.00 Ry     beta= 0.70
     Davidson diagonalization with overlap
     c_bands:  1 eigenvalues not converged
     c_bands:  1 eigenvalues not converged
     c_bands:  1 eigenvalues not converged
     c_bands:  1 eigenvalues not converged
     ethr =  1.56E-08,  avg # of iterations = 14.7

     total cpu time spent up to now is     7639.9 secs

     total energy              =    -327.03761508 Ry
     estimated scf accuracy    <       0.00003518 Ry

     iteration # 19     ecut=    70.00 Ry     beta= 0.70
     Davidson diagonalization with overlap
     ethr =  1.56E-08,  avg # of iterations =  1.7

     total cpu time spent up to now is     7761.0 secs

     total energy              =    -327.03761174 Ry
     estimated scf accuracy    <       0.00003194 Ry

     iteration # 20     ecut=    70.00 Ry     beta= 0.70
     Davidson diagonalization with overlap
     c_bands:  1 eigenvalues not converged
     ethr =  1.56E-08,  avg # of iterations =  5.5

     total cpu time spent up to now is     8028.4 secs

     total energy              =    -327.03761226 Ry
     estimated scf accuracy    <       0.00001372 Ry

     iteration # 21     ecut=    70.00 Ry     beta= 0.70
     Davidson diagonalization with overlap
     c_bands:  1 eigenvalues not converged
     c_bands:  1 eigenvalues not converged
     ethr =  8.17E-09,  avg # of iterations = 10.9

     total cpu time spent up to now is     8509.3 secs

     total energy              =    -327.03761351 Ry
     estimated scf accuracy    <       0.00000621 Ry

     iteration # 22     ecut=    70.00 Ry     beta= 0.70
     Davidson diagonalization with overlap
     ethr =  3.70E-09,  avg # of iterations = 10.1

     total cpu time spent up to now is     8972.5 secs

     total energy              =    -327.03761495 Ry
     estimated scf accuracy    <       0.00001100 Ry

     iteration # 23     ecut=    70.00 Ry     beta= 0.70
     Davidson diagonalization with overlap
     ethr =  3.70E-09,  avg # of iterations =  2.4

     total cpu time spent up to now is     9120.4 secs

     total energy              =    -327.03761407 Ry
     estimated scf accuracy    <       0.00001304 Ry

     iteration # 24     ecut=    70.00 Ry     beta= 0.70
     Davidson diagonalization with overlap
     ethr =  3.70E-09,  avg # of iterations =  1.3

     total cpu time spent up to now is     9222.9 secs

     total energy              =    -327.03761361 Ry
     estimated scf accuracy    <       0.00000987 Ry

     iteration # 25     ecut=    70.00 Ry     beta= 0.70
     Davidson diagonalization with overlap
     c_bands:  1 eigenvalues not converged
     ethr =  3.70E-09,  avg # of iterations =  3.1

     total cpu time spent up to now is     9399.6 secs

     total energy              =    -327.03761284 Ry
     estimated scf accuracy    <       0.00000628 Ry

     iteration # 26     ecut=    70.00 Ry     beta= 0.70
     Davidson diagonalization with overlap
     c_bands:  1 eigenvalues not converged
     ethr =  3.70E-09,  avg # of iterations = 10.2

     total cpu time spent up to now is     9864.5 secs

     total energy              =    -327.03761487 Ry
     estimated scf accuracy    <       0.00000698 Ry

     iteration # 27     ecut=    70.00 Ry     beta= 0.70
     Davidson diagonalization with overlap
     c_bands:  1 eigenvalues not converged
     ethr =  3.70E-09,  avg # of iterations =  7.6

     total cpu time spent up to now is    10228.5 secs

     total energy              =    -327.03761352 Ry
     estimated scf accuracy    <       0.00002999 Ry

     iteration # 28     ecut=    70.00 Ry     beta= 0.70
     Davidson diagonalization with overlap
     ethr =  3.70E-09,  avg # of iterations =  5.3

     total cpu time spent up to now is    10497.6 secs

     total energy              =    -327.03761326 Ry
     estimated scf accuracy    <       0.00001424 Ry

     iteration # 29     ecut=    70.00 Ry     beta= 0.70
     Davidson diagonalization with overlap
     ethr =  3.70E-09,  avg # of iterations =  2.5

     total cpu time spent up to now is    10650.9 secs

     total energy              =    -327.03761317 Ry
     estimated scf accuracy    <       0.00000823 Ry

     iteration # 30     ecut=    70.00 Ry     beta= 0.70
     Davidson diagonalization with overlap
     c_bands:  1 eigenvalues not converged
     ethr =  3.70E-09,  avg # of iterations =  2.9

     total cpu time spent up to now is    10814.6 secs

     total energy              =    -327.03761224 Ry
     estimated scf accuracy    <       0.00000544 Ry

     iteration # 31     ecut=    70.00 Ry     beta= 0.70
     Davidson diagonalization with overlap
     c_bands:  1 eigenvalues not converged
     c_bands:  1 eigenvalues not converged
     c_bands:  1 eigenvalues not converged
     ethr =  3.24E-09,  avg # of iterations = 13.7

     total cpu time spent up to now is    11430.6 secs

     total energy              =    -327.03761399 Ry
     estimated scf accuracy    <       0.00000749 Ry

     iteration # 32     ecut=    70.00 Ry     beta= 0.70
     Davidson diagonalization with overlap
     ethr =  3.24E-09,  avg # of iterations =  1.3

     total cpu time spent up to now is    11534.4 secs

     total energy              =    -327.03761389 Ry
     estimated scf accuracy    <       0.00000560 Ry

     iteration # 33     ecut=    70.00 Ry     beta= 0.70
     Davidson diagonalization with overlap
     ethr =  3.24E-09,  avg # of iterations =  1.0

     total cpu time spent up to now is    11628.4 secs

     total energy              =    -327.03761379 Ry
     estimated scf accuracy    <       0.00000480 Ry

     iteration # 34     ecut=    70.00 Ry     beta= 0.70
     Davidson diagonalization with overlap
     ethr =  2.86E-09,  avg # of iterations =  1.1

     total cpu time spent up to now is    11724.5 secs

     total energy              =    -327.03761337 Ry
     estimated scf accuracy    <       0.00000385 Ry

     iteration # 35     ecut=    70.00 Ry     beta= 0.70
     Davidson diagonalization with overlap
     c_bands:  1 eigenvalues not converged
     c_bands:  1 eigenvalues not converged
     ethr =  2.29E-09,  avg # of iterations =  9.8

     total cpu time spent up to now is    12166.3 secs

     End of self-consistent calculation

          k = 0.1000 0.1000 0.1000 ( 87361 PWs)   bands (ev):

    -8.6074  -7.7512  -7.7411  -7.7377  -7.1301  -7.0697  -6.9131  -6.7343
    -6.6768  -6.6057  -6.2981  -6.2789  -6.0232  -5.8296  -5.7973  -5.5624
    -5.4835  -5.2334  -4.7966  -4.6714  -4.5930  -4.5614  -4.5026  -4.4593
    -4.2852  -3.7830  -3.6759  -3.5461  -3.4369  -3.2991  -3.1874  -3.0904
    -3.0422  -2.9259  -2.7713  -2.2948  -2.1690  -2.0548  -1.5152  -1.4221
    -1.2020  -0.9025  -0.8373  -0.7709  -0.7486  -0.7282  -0.6086  -0.5720
    -0.4814  -0.3917  -0.2060  -0.0394   0.0140   0.0815   0.0975   0.2502
     0.3163   0.4095   0.5714   0.6828   0.7448   0.8186   0.9007   0.9022
     0.9691   0.9781   1.1130   1.1899   1.2271   1.3158   1.4084   1.5079
     1.5302   1.5950   1.6396   1.7392   1.8189   1.8387   1.9407   2.0725
     2.0808   2.1793   2.2484   2.2976

          k = 0.1000 0.1000 0.3000 ( 87213 PWs)   bands (ev):

    -8.5955  -7.7926  -7.7446  -7.7244  -7.1680  -7.0631  -6.9415  -6.7301
    -6.6737  -6.5258  -6.2738  -6.2432  -5.9846  -5.8412  -5.7970  -5.5762
    -5.4846  -5.3217  -4.8035  -4.6626  -4.5793  -4.5573  -4.4963  -4.4607
    -4.3367  -3.8282  -3.6389  -3.5474  -3.4650  -3.3501  -3.2081  -3.0755
    -3.0278  -2.8634  -2.6141  -2.3353  -2.1734  -2.0343  -1.5566  -1.4657
    -1.2451  -0.9005  -0.8486  -0.7552  -0.7551  -0.6937  -0.6223  -0.5419
    -0.5289  -0.3338  -0.2141  -0.0194  -0.0063   0.0572   0.0819   0.2130
     0.3180   0.3600   0.5029   0.6718   0.6730   0.7099   0.8686   0.9209
     0.9304   1.0012   1.2290   1.2791   1.3393   1.4045   1.4544   1.5427
     1.5643   1.6748   1.6870   1.8507   1.8871   1.9259   1.9965   2.0081
     2.1526   2.1609   2.2075   2.3297

          k = 0.1000 0.1000-0.5000 ( 87318 PWs)   bands (ev):

    -8.5877  -7.8225  -7.7403  -7.7154  -7.1916  -7.0594  -6.9585  -6.7274
    -6.6717  -6.4851  -6.2444  -6.2196  -5.9612  -5.8483  -5.7972  -5.5884
    -5.4854  -5.3842  -4.8078  -4.6573  -4.5705  -4.5562  -4.4900  -4.4646
    -4.3567  -3.8555  -3.6230  -3.5489  -3.4867  -3.3710  -3.2191  -3.0682
    -3.0120  -2.8300  -2.5116  -2.3616  -2.1747  -2.0230  -1.6502  -1.4285
    -1.2649  -0.9152  -0.8541  -0.7583  -0.7377  -0.6620  -0.6415  -0.5595
    -0.5262  -0.3162  -0.2182  -0.0270  -0.0254   0.0771   0.1125   0.1708
     0.3143   0.3252   0.4511   0.6263   0.6450   0.6920   0.8585   0.9357
     0.9367   1.0276   1.2705   1.2819   1.4052   1.4629   1.5116   1.5587
     1.6223   1.6770   1.7087   1.8264   1.9544   1.9660   2.0362   2.1061
     2.1755   2.1930   2.2134   2.2893

          k = 0.1000 0.3000 0.3000 ( 87311 PWs)   bands (ev):

    -8.5819  -7.7948  -7.7809  -7.7202  -7.1897  -7.1094  -6.9565  -6.6785
    -6.5924  -6.5262  -6.2717  -6.2377  -5.9925  -5.8040  -5.7883  -5.5227
    -5.4826  -5.2837  -4.8949  -4.7552  -4.6707  -4.5937  -4.5383  -4.4785
    -4.3077  -3.8343  -3.5905  -3.5743  -3.4254  -3.2554  -3.1163  -3.0429
    -2.9516  -2.8403  -2.5737  -2.3849  -2.2919  -2.1121  -1.6187  -1.4823
    -1.3177  -0.9273  -0.8487  -0.8196  -0.7609  -0.6657  -0.6051  -0.5352
    -0.4404  -0.2697  -0.2335  -0.0402  -0.0093   0.0650   0.1599   0.2017
     0.3061   0.3980   0.5410   0.6605   0.7225   0.7831   0.8302   0.9564
     0.9849   1.0676   1.2019   1.2449   1.2994   1.3752   1.4250   1.5762
     1.6335   1.6519   1.7380   1.8329   1.8857   1.8958   2.0284   2.0468
     2.1547   2.1804   2.2351   2.2898

          k = 0.1000 0.3000-0.5000 ( 87320 PWs)   bands (ev):

    -8.5741  -7.8110  -7.7889  -7.7129  -7.2121  -7.1069  -6.9738  -6.6755
    -6.5910  -6.4870  -6.2395  -6.2142  -5.9691  -5.8065  -5.7879  -5.5304
    -5.4916  -5.3538  -4.8937  -4.7549  -4.6746  -4.5909  -4.5299  -4.4730
    -4.3254  -3.8616  -3.5913  -3.5556  -3.4481  -3.2629  -3.1056  -3.0417
    -2.9461  -2.8100  -2.4880  -2.4075  -2.3114  -2.1071  -1.6434  -1.5268
    -1.3238  -0.9384  -0.8622  -0.8123  -0.7570  -0.6732  -0.5589  -0.5089
    -0.4702  -0.2885  -0.2103  -0.0650   0.0067   0.1041   0.1428   0.2426
     0.2772   0.3914   0.5257   0.6547   0.6657   0.8270   0.8510   0.8891
     0.9892   1.0781   1.2010   1.2464   1.3388   1.4084   1.4427   1.5366
     1.6236   1.6973   1.7503   1.8225   1.8984   1.9821   2.0280   2.0939
     2.1108   2.1642   2.2130   2.3349

          k = 0.1000-0.5000-0.5000 ( 87168 PWs)   bands (ev):

    -8.5651  -7.8225  -7.8036  -7.7047  -7.2238  -7.1380  -6.9799  -6.6568
    -6.5336  -6.4822  -6.2330  -6.2149  -5.9861  -5.7733  -5.7634  -5.5106
    -5.4920  -5.3408  -4.9896  -4.7747  -4.7175  -4.6270  -4.5368  -4.4459
    -4.3164  -3.9051  -3.6080  -3.5246  -3.4176  -3.2351  -3.1332  -2.9296
    -2.8553  -2.7890  -2.5230  -2.4268  -2.3453  -2.1518  -1.7136  -1.5690
    -1.3165  -0.9705  -0.8871  -0.8231  -0.7587  -0.7031  -0.5334  -0.4580
    -0.4081  -0.3127  -0.1447  -0.0898   0.0032   0.0540   0.1459   0.2640
     0.3998   0.4654   0.4729   0.6653   0.7193   0.7868   0.8577   0.9190
     1.0576   1.0936   1.2118   1.2666   1.3232   1.3439   1.4225   1.4996
     1.5265   1.5908   1.7132   1.8592   1.8955   1.9715   2.0462   2.1407
     2.1607   2.1975   2.2331   2.3234

          k = 0.3000 0.3000 0.3000 ( 87287 PWs)   bands (ev):

    -8.5686  -7.7874  -7.7708  -7.7691  -7.2099  -7.1543  -6.9750  -6.5825
    -6.5541  -6.5321  -6.2778  -6.2238  -5.9744  -5.7847  -5.7562  -5.4877
    -5.4818  -5.2587  -4.9101  -4.8594  -4.7509  -4.6417  -4.5936  -4.5343
    -4.3113  -3.7581  -3.5697  -3.5562  -3.4045  -3.1562  -3.0738  -2.9728
    -2.9624  -2.8131  -2.5974  -2.4249  -2.3264  -2.1934  -1.6002  -1.5341
    -1.4168  -0.9339  -0.8492  -0.7852  -0.7820  -0.6479  -0.5820  -0.5245
    -0.3424  -0.3163  -0.1243  -0.0971   0.0163   0.0881   0.2094   0.2210
     0.3369   0.3911   0.5381   0.6499   0.7005   0.7792   0.8169   0.9630
     1.0141   1.0624   1.1353   1.2318   1.3000   1.3666   1.4836   1.5688
     1.5911   1.7078   1.7413   1.7670   1.8757   1.9437   1.9660   1.9879
     2.0835   2.1576   2.1971   2.2956

          k = 0.3000 0.3000-0.5000 ( 87270 PWs)   bands (ev):

    -8.5608  -7.7999  -7.7831  -7.7615  -7.2281  -7.1567  -6.9926  -6.5797
    -6.5524  -6.4959  -6.2425  -6.1979  -5.9434  -5.7875  -5.7623  -5.4982
    -5.4891  -5.3336  -4.9090  -4.8538  -4.7587  -4.6391  -4.5889  -4.5303
    -4.3256  -3.7834  -3.5699  -3.5386  -3.4216  -3.1446  -3.0687  -2.9843
    -2.9450  -2.7840  -2.5546  -2.4340  -2.3433  -2.1921  -1.5845  -1.5668
    -1.4724  -0.9399  -0.8472  -0.8032  -0.7787  -0.6322  -0.5314  -0.4902
    -0.3847  -0.3506  -0.1424  -0.1098   0.0555   0.1117   0.2264   0.2862
     0.3328   0.4020   0.5387   0.6976   0.7107   0.7859   0.8386   0.8924
     0.9906   1.0509   1.1447   1.2576   1.2739   1.3237   1.4889   1.5022
     1.5947   1.7021   1.7599   1.7992   1.8342   1.9104   1.9830   2.0469
     2.0544   2.1492   2.2678   2.2818

          k = 0.3000-0.5000-0.5000 ( 87248 PWs)   bands (ev):

    -8.5520  -7.8087  -7.7928  -7.7590  -7.2328  -7.1942  -7.0005  -6.5512
    -6.5104  -6.4884  -6.2392  -6.1908  -5.9493  -5.7563  -5.7232  -5.5211
    -5.4792  -5.3257  -4.9783  -4.8803  -4.7913  -4.6610  -4.5809  -4.5289
    -4.3474  -3.7863  -3.6070  -3.5372  -3.3411  -3.1777  -3.0325  -2.9227
    -2.8731  -2.7628  -2.6058  -2.5127  -2.2644  -2.2301  -1.6696  -1.5642
    -1.4883  -0.9666  -0.8805  -0.8141  -0.7362  -0.6252  -0.4840  -0.4736
    -0.4095  -0.2808  -0.1738  -0.0564   0.0060   0.1597   0.2278   0.2825
     0.3554   0.4455   0.5952   0.6777   0.7421   0.8005   0.8599   0.8776
     0.9551   1.0858   1.1004   1.2200   1.2879   1.3142   1.3913   1.4863
     1.5181   1.5873   1.7169   1.7923   1.8389   1.9204   2.0019   2.0407
     2.1026   2.2138   2.2395   2.2682

          k =-0.5000-0.5000-0.5000 ( 87128 PWs)   bands (ev):

    -8.5435  -7.8069  -7.7858  -7.7826  -7.2349  -7.2319  -7.0110  -6.5120
    -6.4853  -6.4765  -6.2404  -6.1812  -5.9373  -5.7345  -5.6894  -5.5201
    -5.4808  -5.3161  -4.9780  -4.9609  -4.8310  -4.7073  -4.6134  -4.5157
    -4.3719  -3.7255  -3.5816  -3.5669  -3.2653  -3.2157  -2.9950  -2.9052
    -2.8389  -2.7473  -2.6206  -2.5530  -2.2861  -2.2394  -1.6690  -1.5880
    -1.5521  -0.9843  -0.8747  -0.7800  -0.7052  -0.6136  -0.4640  -0.4460
    -0.4004  -0.2552  -0.1848  -0.0568  -0.0212   0.1739   0.2332   0.2527
     0.3487   0.6299   0.6340   0.6871   0.7597   0.8307   0.8445   0.9327
     0.9564   1.0068   1.1743   1.1789   1.1865   1.2322   1.2847   1.3321
     1.4698   1.6800   1.6855   1.7800   1.8424   1.9184   1.9999   2.0328
     2.0637   2.1158   2.2140   2.2221

          k = 0.1000-0.1000 0.1000 ( 87361 PWs)   bands (ev):

    -8.6074  -7.7525  -7.7411  -7.7365  -7.1255  -7.0747  -6.9148  -6.7309
    -6.6775  -6.6063  -6.2885  -6.2852  -6.0290  -5.8279  -5.7830  -5.5864
    -5.4827  -5.2352  -4.7875  -4.6699  -4.6262  -4.5064  -4.4947  -4.4406
    -4.3023  -3.8220  -3.6975  -3.5932  -3.3535  -3.3052  -3.1869  -3.0941
    -3.0423  -2.9126  -2.7989  -2.2955  -2.1377  -2.0447  -1.5322  -1.4168
    -1.2105  -0.8783  -0.8394  -0.7804  -0.7458  -0.7403  -0.5695  -0.5526
    -0.5394  -0.4103  -0.1939  -0.0289   0.0123   0.0856   0.0985   0.1678
     0.3060   0.4580   0.5861   0.6845   0.8182   0.8397   0.8951   0.9190
     0.9643   0.9981   1.0584   1.1300   1.1913   1.2717   1.4266   1.4941
     1.5747   1.6006   1.6289   1.7491   1.7725   1.8852   1.9598   2.0608
     2.1016   2.1390   2.2408   2.2868

          k = 0.1000-0.1000 0.3000 ( 87213 PWs)   bands (ev):

    -8.5955  -7.7927  -7.7458  -7.7231  -7.1652  -7.0671  -6.9419  -6.7272
    -6.6743  -6.5266  -6.2700  -6.2433  -5.9922  -5.8397  -5.7830  -5.5928
    -5.4891  -5.3233  -4.7947  -4.6668  -4.6115  -4.4940  -4.4888  -4.4351
    -4.3640  -3.8643  -3.6645  -3.5945  -3.3834  -3.3607  -3.2083  -3.0737
    -3.0245  -2.8572  -2.6390  -2.3424  -2.1273  -2.0282  -1.5735  -1.4634
    -1.2387  -0.9079  -0.8413  -0.7964  -0.7243  -0.6900  -0.6167  -0.5661
    -0.5070  -0.3566  -0.2087  -0.0036   0.0095   0.0454   0.0839   0.1914
     0.2651   0.3787   0.4994   0.6283   0.7362   0.7502   0.8557   0.9470
     0.9743   1.0452   1.1483   1.2531   1.2978   1.3057   1.4553   1.5160
     1.6504   1.6629   1.7561   1.8337   1.8714   1.9457   1.9650   2.0240
     2.1524   2.1990   2.2722   2.2938

          k = 0.3000-0.1000 0.1000 ( 87213 PWs)   bands (ev):

    -8.5939  -7.8043  -7.7308  -7.7291  -7.1447  -7.1230  -6.9281  -6.6812
    -6.6083  -6.5916  -6.2880  -6.2800  -6.0402  -5.7838  -5.7818  -5.5558
    -5.4649  -5.1873  -4.8910  -4.7498  -4.6758  -4.5608  -4.5199  -4.4746
    -4.2815  -3.8561  -3.6618  -3.5959  -3.3202  -3.2401  -3.1385  -3.0185
    -2.9739  -2.8737  -2.7613  -2.3271  -2.2190  -2.1001  -1.6419  -1.3852
    -1.2988  -0.9059  -0.8500  -0.7978  -0.7599  -0.6979  -0.6306  -0.5820
    -0.4278  -0.3681  -0.1752  -0.0050   0.0230   0.0439   0.0778   0.1888
     0.3057   0.4356   0.5650   0.5995   0.7610   0.8815   0.9232   0.9600
     1.0065   1.0617   1.1264   1.1531   1.2674   1.3453   1.4745   1.5179
     1.5822   1.6445   1.6888   1.7485   1.8395   1.8861   1.9768   2.0850
     2.1389   2.1929   2.3084   2.3550

          k =-0.3000-0.1000-0.1000 ( 87213 PWs)   bands (ev):

    -8.5939  -7.8039  -7.7311  -7.7291  -7.1560  -7.1109  -6.9273  -6.6833
    -6.6078  -6.5917  -6.2995  -6.2732  -6.0322  -5.8050  -5.7823  -5.5138
    -5.4703  -5.1840  -4.8965  -4.7551  -4.6666  -4.5939  -4.5525  -4.4884
    -4.2662  -3.7891  -3.6209  -3.5902  -3.3811  -3.2401  -3.1338  -3.0396
    -2.9579  -2.8939  -2.7028  -2.3581  -2.2488  -2.1218  -1.6305  -1.3912
    -1.2669  -0.9259  -0.8618  -0.7914  -0.7512  -0.6834  -0.6560  -0.5971
    -0.3937  -0.3144  -0.2224  -0.0159   0.0146   0.0414   0.1551   0.1970
     0.2916   0.4052   0.5219   0.6615   0.7453   0.8102   0.8705   0.9650
     1.0163   1.0745   1.1722   1.1959   1.2857   1.3854   1.4461   1.5399
     1.5806   1.6778   1.7261   1.7964   1.8385   1.8949   1.9501   2.0077
     2.0683   2.1678   2.2931   2.3404

          k = 0.1000-0.1000-0.5000 ( 87318 PWs)   bands (ev):

    -8.5877  -7.8226  -7.7416  -7.7141  -7.1893  -7.0635  -6.9580  -6.7248
    -6.6722  -6.4859  -6.2417  -6.2183  -5.9705  -5.8469  -5.7831  -5.5992
    -5.4946  -5.3852  -4.7992  -4.6645  -4.6032  -4.4916  -4.4765  -4.4324
    -4.3941  -3.8901  -3.6502  -3.5955  -3.4254  -3.3645  -3.2201  -3.0645
    -3.0067  -2.8263  -2.5389  -2.3674  -2.1226  -2.0201  -1.6627  -1.4298
    -1.2524  -0.9261  -0.8413  -0.8105  -0.7143  -0.6505  -0.6488  -0.5843
    -0.4850  -0.3436  -0.2217   0.0016   0.0207   0.0420   0.1177   0.1822
     0.2313   0.3318   0.4496   0.5477   0.6797   0.7638   0.8641   0.9665
     0.9843   1.0730   1.2079   1.2763   1.3018   1.3599   1.4885   1.5602
     1.6758   1.6987   1.7579   1.8879   1.9421   1.9597   1.9819   2.1178
     2.1924   2.2276   2.2553   2.3071

          k =-0.5000-0.1000 0.1000 ( 87318 PWs)   bands (ev):

    -8.5850  -7.8376  -7.7230  -7.7210  -7.1671  -7.1422  -6.9325  -6.6663
    -6.6069  -6.5259  -6.2909  -6.2802  -6.0461  -5.7951  -5.7501  -5.4876
    -5.4687  -5.1552  -5.0034  -4.7676  -4.6880  -4.6416  -4.5591  -4.4721
    -4.2661  -3.8336  -3.6159  -3.5917  -3.3475  -3.2173  -3.1652  -2.9833
    -2.8692  -2.8298  -2.6813  -2.3633  -2.3029  -2.1545  -1.7415  -1.3406
    -1.3172  -0.9416  -0.8802  -0.7979  -0.7640  -0.6855  -0.6544  -0.6045
    -0.3705  -0.2707  -0.1994  -0.0605   0.0123   0.0554   0.1338   0.2191
     0.3253   0.3724   0.4537   0.6819   0.7342   0.7968   0.9066   0.9764
     1.0863   1.1080   1.1982   1.2715   1.3289   1.3858   1.4159   1.5297
     1.6058   1.6602   1.7087   1.8167   1.8652   1.9272   1.9716   2.0367
     2.1527   2.2231   2.2692   2.3679

          k = 0.3000-0.1000 0.3000 ( 87311 PWs)   bands (ev):

    -8.5819  -7.7953  -7.7811  -7.7196  -7.1840  -7.1168  -6.9560  -6.6766
    -6.5916  -6.5278  -6.2660  -6.2379  -6.0026  -5.7942  -5.7764  -5.5569
    -5.4819  -5.2873  -4.8891  -4.7533  -4.6753  -4.5588  -4.5128  -4.4586
    -4.3250  -3.8957  -3.6397  -3.5801  -3.3766  -3.2533  -3.1149  -3.0275
    -2.9548  -2.8305  -2.6298  -2.3866  -2.2151  -2.0987  -1.6266  -1.4974
    -1.3119  -0.9225  -0.8802  -0.8143  -0.7475  -0.6689  -0.6059  -0.5188
    -0.4631  -0.2870  -0.2119  -0.0325   0.0108   0.0524   0.1031   0.1790
     0.3211   0.4348   0.5573   0.6173   0.7250   0.8192   0.8683   0.9415
     1.0129   1.0817   1.1733   1.1974   1.2851   1.3086   1.4484   1.5260
     1.6177   1.6603   1.7162   1.8007   1.9158   1.9688   2.0388   2.0769
     2.1214   2.2157   2.2952   2.3481

          k = 0.3000-0.3000 0.1000 ( 87311 PWs)   bands (ev):

    -8.5807  -7.7974  -7.7800  -7.7180  -7.1794  -7.1528  -6.9452  -6.6111
    -6.5811  -6.5583  -6.2945  -6.2704  -6.0347  -5.7495  -5.7369  -5.5623
    -5.4532  -5.1566  -4.8930  -4.8803  -4.7313  -4.5893  -4.5750  -4.5088
    -4.3057  -3.8153  -3.6643  -3.5794  -3.2614  -3.1734  -3.0886  -2.9886
    -2.9592  -2.8197  -2.7779  -2.3993  -2.1889  -2.1550  -1.6778  -1.4422
    -1.3650  -0.9324  -0.8447  -0.8029  -0.7535  -0.6697  -0.6258  -0.5563
    -0.4017  -0.2653  -0.1166  -0.0548  -0.0161   0.0847   0.1012   0.2008
     0.3497   0.3911   0.4809   0.5642   0.7149   0.8344   0.8983   0.9121
     1.0168   1.0372   1.1869   1.2387   1.3392   1.3610   1.4502   1.5310
     1.5979   1.7084   1.7167   1.7664   1.7681   1.9065   1.9852   2.0877
     2.1196   2.2951   2.3480   2.3489

          k =-0.3000-0.3000-0.1000 ( 87311 PWs)   bands (ev):

    -8.5807  -7.7942  -7.7832  -7.7177  -7.1929  -7.1379  -6.9453  -6.6087
    -6.5865  -6.5569  -6.3078  -6.2637  -6.0234  -5.7813  -5.7466  -5.4728
    -5.4721  -5.1530  -4.9109  -4.8678  -4.7395  -4.6438  -4.6016  -4.5413
    -4.2761  -3.7144  -3.6013  -3.5721  -3.3735  -3.1717  -3.0753  -2.9858
    -2.9571  -2.8654  -2.6814  -2.4030  -2.2757  -2.1971  -1.6471  -1.4969
    -1.2775  -0.9244  -0.9016  -0.7568  -0.7443  -0.6757  -0.6664  -0.5782
    -0.2723  -0.2704  -0.1705  -0.0205  -0.0118   0.0431   0.1382   0.1914
     0.3294   0.3648   0.4754   0.6280   0.7355   0.7430   0.7854   0.9958
     1.0658   1.0831   1.1751   1.2143   1.3486   1.3760   1.4816   1.5834
     1.6276   1.6939   1.7731   1.8023   1.8432   1.9267   1.9403   2.0135
     2.0674   2.1391   2.1504   2.3794

          k = 0.3000-0.1000-0.5000 ( 87320 PWs)   bands (ev):

    -8.5740  -7.8112  -7.7896  -7.7122  -7.2077  -7.1137  -6.9725  -6.6737
    -6.5902  -6.4886  -6.2356  -6.2121  -5.9808  -5.8008  -5.7722  -5.5561
    -5.4969  -5.3579  -4.8878  -4.7551  -4.6763  -4.5551  -4.5092  -4.4483
    -4.3446  -3.9203  -3.6359  -3.5672  -3.4083  -3.2591  -3.1023  -3.0304
    -2.9412  -2.8058  -2.5429  -2.4234  -2.2132  -2.0994  -1.6556  -1.5343
    -1.3100  -0.9389  -0.8931  -0.8212  -0.7412  -0.6790  -0.5643  -0.5152
    -0.4493  -0.2828  -0.2351   0.0016   0.0335   0.0482   0.1108   0.1738
     0.3249   0.4117   0.5538   0.5980   0.6523   0.8233   0.8684   0.9320
     1.0434   1.0905   1.1993   1.2376   1.2632   1.3308   1.4436   1.5260
     1.6252   1.6307   1.7153   1.8743   1.9110   2.0235   2.0527   2.1085
     2.1741   2.2108   2.2547   2.3046

          k =-0.5000-0.3000 0.1000 ( 87320 PWs)   bands (ev):

    -8.5720  -7.8228  -7.7778  -7.7104  -7.2136  -7.1584  -6.9529  -6.6114
    -6.5583  -6.4997  -6.3035  -6.2663  -6.0303  -5.7523  -5.7085  -5.4995
    -5.4550  -5.1348  -4.9924  -4.8861  -4.7664  -4.6745  -4.5886  -4.5367
    -4.3036  -3.7223  -3.6307  -3.5756  -3.2820  -3.2093  -3.0466  -2.9986
    -2.8484  -2.8250  -2.7232  -2.4044  -2.2526  -2.2224  -1.7309  -1.5086
    -1.2999  -0.9612  -0.8379  -0.7949  -0.7493  -0.6724  -0.6456  -0.5722
    -0.3178  -0.1626  -0.1349  -0.0450  -0.0272   0.0729   0.1358   0.2217
     0.3317   0.3666   0.4332   0.5639   0.6667   0.7750   0.8173   0.9692
     1.0445   1.0634   1.2192   1.2679   1.3360   1.3864   1.4528   1.5520
     1.6217   1.6852   1.7475   1.8213   1.8691   1.9266   1.9605   2.0920
     2.1179   2.1758   2.2296   2.3279

          k =-0.1000-0.5000 0.3000 ( 87320 PWs)   bands (ev):

    -8.5729  -7.8284  -7.7734  -7.7119  -7.2010  -7.1407  -6.9623  -6.6603
    -6.5426  -6.5121  -6.2650  -6.2403  -6.0081  -5.7821  -5.7594  -5.5003
    -5.4823  -5.2645  -4.9952  -4.7719  -4.7067  -4.6325  -4.5452  -4.4562
    -4.3012  -3.8776  -3.6084  -3.5483  -3.3920  -3.2294  -3.1452  -2.9563
    -2.8456  -2.8146  -2.5801  -2.3980  -2.3407  -2.1525  -1.7248  -1.4752
    -1.3266  -0.9578  -0.8846  -0.8112  -0.7624  -0.6976  -0.5785  -0.5124
    -0.3891  -0.2691  -0.1616  -0.1015  -0.0263   0.0469   0.1626   0.2455
     0.3647   0.4322   0.4864   0.6889   0.7269   0.7926   0.8596   0.9446
     1.0616   1.1209   1.1913   1.2394   1.3055   1.3689   1.4083   1.5039
     1.5853   1.6354   1.7231   1.8000   1.8886   1.9523   2.0663   2.0933
     2.1515   2.1969   2.2929   2.3065

          k =-0.5000 0.5000 0.1000 ( 87168 PWs)   bands (ev):

    -8.5635  -7.8182  -7.8042  -7.7032  -7.2431  -7.1683  -6.9625  -6.6131
    -6.4947  -6.4805  -6.3071  -6.2637  -6.0278  -5.7200  -5.6773  -5.4783
    -5.4706  -5.1212  -4.9892  -4.9769  -4.8021  -4.7246  -4.6211  -4.5140
    -4.3319  -3.6543  -3.6345  -3.5708  -3.2472  -3.1963  -3.1144  -2.9190
    -2.8147  -2.7838  -2.7579  -2.4116  -2.2797  -2.2297  -1.7476  -1.5965
    -1.2780  -0.9887  -0.7959  -0.7385  -0.7222  -0.6794  -0.6580  -0.6248
    -0.2564  -0.1461  -0.1313  -0.0370  -0.0208   0.1445   0.1560   0.2224
     0.3125   0.3490   0.4726   0.4743   0.6204   0.7164   0.8592   0.8886
     1.0726   1.0784   1.2010   1.2520   1.2788   1.3544   1.4576   1.6127
     1.6157   1.7425   1.7673   1.8052   1.8274   1.9538   2.0100   2.0756
     2.1252   2.1260   2.1673   2.3781

          k = 0.3000-0.3000 0.3000 ( 87287 PWs)   bands (ev):

    -8.5686  -7.7906  -7.7700  -7.7669  -7.1925  -7.1741  -6.9735  -6.5780
    -6.5552  -6.5348  -6.2701  -6.2233  -5.9896  -5.7540  -5.7463  -5.5606
    -5.4730  -5.2633  -4.8920  -4.8756  -4.7385  -4.5791  -4.5727  -4.5058
    -4.3402  -3.8476  -3.6507  -3.5605  -3.3114  -3.1525  -3.0852  -2.9749
    -2.9418  -2.7936  -2.6732  -2.4638  -2.1872  -2.1675  -1.6341  -1.5002
    -1.4482  -0.9315  -0.8963  -0.8245  -0.7314  -0.6121  -0.5680  -0.5372
    -0.4369  -0.1871  -0.1716  -0.1123  -0.0205   0.1410   0.1586   0.2035
     0.3416   0.4224   0.5714   0.6131   0.6744   0.8201   0.8815   0.9496
     1.0089   1.0090   1.1647   1.2327   1.2349   1.3248   1.4041   1.5311
     1.6426   1.7515   1.7622   1.7875   1.7896   1.8731   1.9597   2.0357
     2.1015   2.2520   2.2869   2.3696

          k = 0.3000-0.3000-0.5000 ( 87270 PWs)   bands (ev):

    -8.5608  -7.8002  -7.7862  -7.7582  -7.2165  -7.1715  -6.9903  -6.5755
    -6.5534  -6.4984  -6.2369  -6.1946  -5.9620  -5.7567  -5.7528  -5.5565
    -5.4898  -5.3394  -4.8915  -4.8720  -4.7438  -4.5734  -4.5685  -4.5057
    -4.3533  -3.8680  -3.6492  -3.5481  -3.3400  -3.1400  -3.0798  -2.9861
    -2.9136  -2.7768  -2.6039  -2.5002  -2.1868  -2.1768  -1.6365  -1.5506
    -1.4510  -0.9310  -0.9268  -0.8398  -0.7209  -0.5903  -0.5487  -0.5117
    -0.4311  -0.2415  -0.2112  -0.0459  -0.0115   0.1519   0.2027   0.2498
     0.3236   0.4056   0.5937   0.6426   0.6914   0.8117   0.8645   0.9393
     0.9788   1.0069   1.1752   1.2438   1.2962   1.3044   1.3405   1.5283
     1.5291   1.7045   1.7067   1.8193   1.8487   1.9500   2.0177   2.0207
     2.1238   2.2011   2.2699   2.3722

          k =-0.5000-0.3000 0.3000 ( 87270 PWs)   bands (ev):

    -8.5599  -7.8141  -7.7670  -7.7622  -7.2177  -7.1884  -6.9828  -6.5544
    -6.5382  -6.4961  -6.2749  -6.2199  -5.9805  -5.7549  -5.7175  -5.5116
    -5.4698  -5.2466  -4.9840  -4.8825  -4.7815  -4.6658  -4.5843  -4.5317
    -4.3355  -3.7622  -3.6112  -3.5520  -3.3178  -3.1902  -3.0376  -2.9569
    -2.8595  -2.7858  -2.6557  -2.4702  -2.2631  -2.2270  -1.6931  -1.5094
    -1.4543  -0.9636  -0.8599  -0.7970  -0.7491  -0.6419  -0.5541  -0.5173
    -0.3680  -0.2284  -0.1260  -0.0749  -0.0221   0.1239   0.1946   0.2603
     0.3568   0.4070   0.5541   0.5971   0.6865   0.7966   0.8499   0.9322
     1.0007   1.0492   1.1575   1.2284   1.3166   1.3565   1.4336   1.4915
     1.6051   1.6408   1.7328   1.7906   1.8399   1.8609   1.9816   2.0675
     2.1352   2.1816   2.2467   2.2629

          k =-0.5000 0.5000 0.3000 ( 87248 PWs)   bands (ev):

    -8.5514  -7.8113  -7.7912  -7.7555  -7.2378  -7.2080  -6.9930  -6.5423
    -6.4899  -6.4781  -6.2776  -6.2127  -5.9729  -5.7283  -5.6848  -5.5026
    -5.4770  -5.2354  -4.9826  -4.9671  -4.8197  -4.7131  -4.6163  -4.5151
    -4.3621  -3.6999  -3.5979  -3.5669  -3.2391  -3.2282  -3.0419  -2.9063
    -2.8293  -2.7614  -2.6886  -2.4919  -2.2833  -2.2365  -1.7010  -1.5906
    -1.4514  -0.9858  -0.8451  -0.7517  -0.7160  -0.6391  -0.5641  -0.5193
    -0.3175  -0.2132  -0.1320  -0.0824  -0.0273   0.1661   0.2104   0.2480
     0.3600   0.4820   0.5430   0.6004   0.6965   0.7507   0.8366   0.9208
     0.9882   1.1316   1.1430   1.1843   1.2083   1.3486   1.4424   1.4634
     1.5201   1.6874   1.6945   1.7808   1.8170   1.8583   1.9862   2.0697
     2.0968   2.1760   2.1965   2.2647

     highest occupied level (ev):     2.3794

!    total energy              =    -327.03761353 Ry
     estimated scf accuracy    <       0.00000029 Ry

     The total energy is the sum of the following terms:
     one-electron contribution =     -81.49219074 Ry
     hartree contribution      =      90.17171362 Ry
     xc contribution           =     -94.38611847 Ry
     ewald contribution        =    -241.33101794 Ry

     convergence has been achieved in  35 iterations

     Forces acting on atoms (cartesian axes, Ry/au):

     atom    1 type  1   force =    -0.00160403   -0.00160403   -0.00707700
     atom    2 type  1   force =    -0.01310109    0.01310109    0.00044500
     atom    3 type  1   force =     0.01310109   -0.01310109    0.00044500
     atom    4 type  1   force =     0.00160403    0.00160403   -0.00707700
     atom    5 type  1   force =    -0.00177775   -0.00177775   -0.00478163
     atom    6 type  1   force =    -0.00665389    0.00665389    0.00042133
     atom    7 type  1   force =     0.00665389   -0.00665389    0.00042133
     atom    8 type  1   force =     0.00177775    0.00177775   -0.00478163
     atom    9 type  1   force =     0.00000000    0.00000000   -0.02931446
     atom   10 type  1   force =     0.00000000    0.00000000    0.00329118
     atom   11 type  1   force =     0.00142613   -0.00060549   -0.00098936
     atom   12 type  1   force =    -0.00142613    0.00060549   -0.00098936
     atom   13 type  1   force =     0.00840548    0.01122440    0.01904345
     atom   14 type  1   force =    -0.00840548   -0.01122440    0.01904345
     atom   15 type  1   force =    -0.00060549    0.00142613   -0.00098936
     atom   16 type  1   force =     0.00060549   -0.00142613   -0.00098936
     atom   17 type  1   force =     0.01122440    0.00840548    0.01904345
     atom   18 type  1   force =    -0.01122440   -0.00840548    0.01904345
     atom   19 type  1   force =    -0.00398947   -0.00398947   -0.00802019
     atom   20 type  1   force =     0.01154027   -0.02282775    0.00318065
     atom   21 type  1   force =    -0.02282775    0.01154027    0.00318065
     atom   22 type  1   force =    -0.00516146   -0.00516146    0.01051931
     atom   23 type  1   force =    -0.00211660   -0.00211660   -0.00206020
     atom   24 type  1   force =     0.02370368    0.00729894   -0.00514757
     atom   25 type  1   force =     0.00729894    0.02370368   -0.00514757
     atom   26 type  1   force =     0.01063296    0.01063296   -0.00540052
     atom   27 type  1   force =     0.00516146    0.00516146    0.01051931
     atom   28 type  1   force =     0.02282775   -0.01154027    0.00318065
     atom   29 type  1   force =    -0.01154027    0.02282775    0.00318065
     atom   30 type  1   force =     0.00398947    0.00398947   -0.00802019
     atom   31 type  1   force =    -0.01063296   -0.01063296   -0.00540052
     atom   32 type  1   force =    -0.00729894   -0.02370368   -0.00514757
     atom   33 type  1   force =    -0.02370368   -0.00729894   -0.00514757
     atom   34 type  1   force =     0.00211660    0.00211660   -0.00206020
     atom   35 type  1   force =    -0.00602221   -0.02659502    0.00185426
     atom   36 type  1   force =     0.01214976   -0.01214976   -0.01009391
     atom   37 type  1   force =    -0.00269183    0.00269183    0.00317658
     atom   38 type  1   force =     0.02659502    0.00602221    0.00185426
     atom   39 type  1   force =    -0.02659502   -0.00602221    0.00185426
     atom   40 type  1   force =     0.00269183   -0.00269183    0.00317658
     atom   41 type  1   force =    -0.01214976    0.01214976   -0.01009391
     atom   42 type  1   force =     0.00602221    0.02659502    0.00185426

     Total force =     0.119444     Total SCF correction =     0.000895


     Computing stress (Cartesian axis) and pressure

          total   stress  (Ry/bohr**3)                   (kbar)     P=      -33.96
  -0.00024472   0.00000291   0.00000000          -36.00        0.43        0.00
   0.00000291  -0.00024472   0.00000000            0.43      -36.00        0.00
   0.00000000   0.00000000  -0.00020323            0.00        0.00      -29.90


     Writing output data file ./Si64.save/

     init_run     :     26.12s CPU     51.50s WALL (       1 calls)
     electrons    :   5859.05s CPU  12114.72s WALL (       1 calls)
     forces       :     15.09s CPU     38.15s WALL (       1 calls)
     stress       :     18.53s CPU     24.24s WALL (       1 calls)

     Called by init_run:
     wfcinit      :     25.45s CPU     50.83s WALL (       1 calls)
     potinit      :      0.06s CPU      0.07s WALL (       1 calls)
     hinit0       :      0.07s CPU      0.07s WALL (       1 calls)

     Called by electrons:
     c_bands      :   5775.06s CPU  12019.66s WALL (      36 calls)
     sum_band     :     78.87s CPU     88.76s WALL (      36 calls)
     v_of_rho     :      1.36s CPU      1.62s WALL (      36 calls)
     mix_rho      :      3.59s CPU      4.44s WALL (      36 calls)

     Called by c_bands:
     init_us_2    :      5.51s CPU      7.69s WALL (    2025 calls)
     cegterg      :   5680.99s CPU  11825.28s WALL (     972 calls)

     Called by *egterg:
     cdiaghg      :   1534.64s CPU   2005.11s WALL (    7742 calls)
     h_psi        :   1643.21s CPU   3965.90s WALL (    7796 calls)
     g_psi        :      1.46s CPU      2.54s WALL (    6797 calls)

     Called by h_psi:
     h_psi:calbec :    893.52s CPU   2353.94s WALL (    7796 calls)
     vloc_psi     :    566.08s CPU    829.01s WALL (    7796 calls)
     add_vuspsi   :    181.14s CPU    775.29s WALL (    7796 calls)

     General routines
     calbec       :    912.75s CPU   2397.33s WALL (    7931 calls)
     fft          :      0.66s CPU      0.87s WALL (     368 calls)
     ffts         :      0.06s CPU      0.06s WALL (      36 calls)
     fftw         :    588.72s CPU    845.43s WALL (  530588 calls)

     Parallel routines
     fft_scatt_xy :     46.71s CPU     53.55s WALL (  530992 calls)
     fft_scatt_yz :    352.73s CPU    544.60s WALL (  530992 calls)

     PWSCF        :      1h38m CPU      3h23m WALL


   This run was terminated on:   0: 6:57  24Feb2022            

=------------------------------------------------------------------------------=
   JOB DONE.
=------------------------------------------------------------------------------=
