
     Program PWSCF v.6.7MaX starts on 24Feb2022 at 12:31:41 

     This program is part of the open-source Quantum ESPRESSO suite
     for quantum simulation of materials; please cite
         "P. Giannozzi et al., J. Phys.:Condens. Matter 21 395502 (2009);
         "P. Giannozzi et al., J. Phys.:Condens. Matter 29 465901 (2017);
          URL http://www.quantum-espresso.org", 
     in publications or presentations arising from this work. More details at
     http://www.quantum-espresso.org/quote

     Parallel version (MPI), running on    40 processors

     MPI processes distributed on     1 nodes
     R & G space division:  proc/nbgrp/npool/nimage =      40
     Waiting for input...
     Reading input from standard input

     Current dimensions of program PWSCF are:
     Max number of different atomic species (ntypx) = 10
     Max number of k-points (npk) =  40000
     Max angular momentum in pseudopotentials (lmaxx) =  3

     Subspace diagonalization in iterative solution of the eigenvalue problem:
     a serial algorithm will be used

     Message from routine setup:
     using ibrav=0 with symmetry is DISCOURAGED, use correct ibrav instead

     Parallelization info
     --------------------
     sticks:   dense  smooth     PW     G-vecs:    dense   smooth      PW
     Min         237     237     63                17457    17457    2393
     Max         238     238     64                17460    17460    2396
     Sum        9517    9517   2537               698355   698355   95769



     bravais-lattice index     =            0
     lattice parameter (alat)  =      20.6660  a.u.
     unit-cell volume          =    8826.0878 (a.u.)^3
     number of atoms/cell      =           42
     number of atomic types    =            1
     number of electrons       =       168.00
     number of Kohn-Sham states=           84
     kinetic-energy cutoff     =      70.0000  Ry
     charge density cutoff     =     280.0000  Ry
     scf convergence threshold =      1.0E-06
     mixing beta               =       0.7000
     number of iterations used =            8  plain     mixing
     Exchange-correlation=  SLA  PW   PBE  PBE
                           (   1   4   3   4   0   0   0)

     celldm(1)=  20.665984  celldm(2)=   0.000000  celldm(3)=   0.000000
     celldm(4)=   0.000000  celldm(5)=   0.000000  celldm(6)=   0.000000

     crystal axes: (cart. coord. in units of alat)
               a(1) = (   1.000000   0.000000   0.000000 )  
               a(2) = (   0.000000   1.000000   0.000000 )  
               a(3) = (   0.000000   0.000000   1.000000 )  

     reciprocal axes: (cart. coord. in units 2 pi/alat)
               b(1) = (  1.000000  0.000000  0.000000 )  
               b(2) = (  0.000000  1.000000  0.000000 )  
               b(3) = (  0.000000  0.000000  1.000000 )  


     PseudoPot. # 1 for Si read from file:
     ./Si.pbe-rrkj.UPF
     MD5 check sum: cf7ab5690cd9a85b22c4813f7e365554
     Pseudo is Norm-conserving, Zval =  4.0
     Generated by new atomic code, or converted to UPF format
     Using radial grid of  883 points,  3 beta functions with: 
                l(1) =   0
                l(2) =   0
                l(3) =   1

     atomic species   valence    mass     pseudopotential
        Si             4.00    28.08600     Si( 1.00)

      4 Sym. Ops. (no inversion) found



   Cartesian axes

     site n.     atom                  positions (alat units)
         1           Si  tau(   1) = (   0.2500000   0.2500000   0.0000000  )
         2           Si  tau(   2) = (   0.7500000   0.2500000   0.0000000  )
         3           Si  tau(   3) = (   0.2500000   0.7500000   0.0000000  )
         4           Si  tau(   4) = (   0.7500000   0.7500000   0.0000000  )
         5           Si  tau(   5) = (   0.2500000   0.2500000   0.5000000  )
         6           Si  tau(   6) = (   0.7500000   0.2500000   0.5000000  )
         7           Si  tau(   7) = (   0.2500000   0.7500000   0.5000000  )
         8           Si  tau(   8) = (   0.7500000   0.7500000   0.5000000  )
         9           Si  tau(   9) = (   0.5000000   0.5000000   0.0000000  )
        10           Si  tau(  10) = (   0.5000000   0.5000000   0.5000000  )
        11           Si  tau(  11) = (   0.2500000   0.5000000   0.2500000  )
        12           Si  tau(  12) = (   0.7500000   0.5000000   0.2500000  )
        13           Si  tau(  13) = (   0.2500000   0.5000000   0.7500000  )
        14           Si  tau(  14) = (   0.7500000   0.5000000   0.7500000  )
        15           Si  tau(  15) = (   0.5000000   0.2500000   0.2500000  )
        16           Si  tau(  16) = (   0.5000000   0.7500000   0.2500000  )
        17           Si  tau(  17) = (   0.5000000   0.2500000   0.7500000  )
        18           Si  tau(  18) = (   0.5000000   0.7500000   0.7500000  )
        19           Si  tau(  19) = (   0.3750000   0.3750000   0.1250000  )
        20           Si  tau(  20) = (   0.8750000   0.3750000   0.1250000  )
        21           Si  tau(  21) = (   0.3750000   0.8750000   0.1250000  )
        22           Si  tau(  22) = (   0.8750000   0.8750000   0.1250000  )
        23           Si  tau(  23) = (   0.3750000   0.3750000   0.6250000  )
        24           Si  tau(  24) = (   0.8750000   0.3750000   0.6250000  )
        25           Si  tau(  25) = (   0.3750000   0.8750000   0.6250000  )
        26           Si  tau(  26) = (   0.8750000   0.8750000   0.6250000  )
        27           Si  tau(  27) = (   0.1250000   0.1250000   0.1250000  )
        28           Si  tau(  28) = (   0.6250000   0.1250000   0.1250000  )
        29           Si  tau(  29) = (   0.1250000   0.6250000   0.1250000  )
        30           Si  tau(  30) = (   0.6250000   0.6250000   0.1250000  )
        31           Si  tau(  31) = (   0.1250000   0.1250000   0.6250000  )
        32           Si  tau(  32) = (   0.6250000   0.1250000   0.6250000  )
        33           Si  tau(  33) = (   0.1250000   0.6250000   0.6250000  )
        34           Si  tau(  34) = (   0.6250000   0.6250000   0.6250000  )
        35           Si  tau(  35) = (   0.3750000   0.1250000   0.3750000  )
        36           Si  tau(  36) = (   0.8750000   0.1250000   0.3750000  )
        37           Si  tau(  37) = (   0.3750000   0.6250000   0.3750000  )
        38           Si  tau(  38) = (   0.8750000   0.6250000   0.3750000  )
        39           Si  tau(  39) = (   0.1250000   0.3750000   0.3750000  )
        40           Si  tau(  40) = (   0.6250000   0.3750000   0.3750000  )
        41           Si  tau(  41) = (   0.1250000   0.8750000   0.3750000  )
        42           Si  tau(  42) = (   0.6250000   0.8750000   0.3750000  )

     number of k points=    64
                       cart. coord. in units 2pi/alat
        k(    1) = (   0.0714286   0.0714286   0.0714286), wk =   0.0233236
        k(    2) = (   0.0714286   0.0714286   0.2142857), wk =   0.0233236
        k(    3) = (   0.0714286   0.0714286   0.3571429), wk =   0.0233236
        k(    4) = (   0.0714286   0.0714286  -0.5000000), wk =   0.0116618
        k(    5) = (   0.0714286   0.2142857   0.2142857), wk =   0.0466472
        k(    6) = (   0.0714286   0.2142857   0.3571429), wk =   0.0466472
        k(    7) = (   0.0714286   0.2142857  -0.5000000), wk =   0.0233236
        k(    8) = (   0.0714286   0.3571429   0.3571429), wk =   0.0466472
        k(    9) = (   0.0714286   0.3571429  -0.5000000), wk =   0.0233236
        k(   10) = (   0.0714286  -0.5000000  -0.5000000), wk =   0.0233236
        k(   11) = (   0.2142857   0.2142857   0.2142857), wk =   0.0233236
        k(   12) = (   0.2142857   0.2142857   0.3571429), wk =   0.0233236
        k(   13) = (   0.2142857   0.2142857  -0.5000000), wk =   0.0116618
        k(   14) = (   0.2142857   0.3571429   0.3571429), wk =   0.0466472
        k(   15) = (   0.2142857   0.3571429  -0.5000000), wk =   0.0233236
        k(   16) = (   0.2142857  -0.5000000  -0.5000000), wk =   0.0233236
        k(   17) = (   0.3571429   0.3571429   0.3571429), wk =   0.0233236
        k(   18) = (   0.3571429   0.3571429  -0.5000000), wk =   0.0116618
        k(   19) = (   0.3571429  -0.5000000  -0.5000000), wk =   0.0233236
        k(   20) = (  -0.5000000  -0.5000000  -0.5000000), wk =   0.0058309
        k(   21) = (   0.0714286  -0.0714286   0.0714286), wk =   0.0233236
        k(   22) = (   0.0714286  -0.0714286   0.2142857), wk =   0.0233236
        k(   23) = (   0.2142857  -0.0714286   0.0714286), wk =   0.0466472
        k(   24) = (  -0.2142857  -0.0714286  -0.0714286), wk =   0.0466472
        k(   25) = (   0.0714286  -0.0714286   0.3571429), wk =   0.0233236
        k(   26) = (   0.3571429  -0.0714286   0.0714286), wk =   0.0466472
        k(   27) = (  -0.3571429  -0.0714286  -0.0714286), wk =   0.0466472
        k(   28) = (   0.0714286  -0.0714286  -0.5000000), wk =   0.0116618
        k(   29) = (  -0.5000000  -0.0714286   0.0714286), wk =   0.0466472
        k(   30) = (   0.2142857  -0.0714286   0.2142857), wk =   0.0466472
        k(   31) = (   0.2142857  -0.2142857   0.0714286), wk =   0.0233236
        k(   32) = (  -0.2142857  -0.2142857  -0.0714286), wk =   0.0233236
        k(   33) = (   0.2142857  -0.0714286   0.3571429), wk =   0.0466472
        k(   34) = (   0.3571429  -0.2142857   0.0714286), wk =   0.0466472
        k(   35) = (  -0.3571429  -0.2142857  -0.0714286), wk =   0.0466472
        k(   36) = (  -0.0714286   0.3571429   0.2142857), wk =   0.0466472
        k(   37) = (  -0.0714286  -0.3571429  -0.2142857), wk =   0.0466472
        k(   38) = (   0.2142857  -0.0714286  -0.5000000), wk =   0.0233236
        k(   39) = (  -0.5000000  -0.2142857   0.0714286), wk =   0.0466472
        k(   40) = (  -0.0714286  -0.5000000   0.2142857), wk =   0.0466472
        k(   41) = (   0.3571429  -0.0714286   0.3571429), wk =   0.0466472
        k(   42) = (   0.3571429  -0.3571429   0.0714286), wk =   0.0233236
        k(   43) = (  -0.3571429  -0.3571429  -0.0714286), wk =   0.0233236
        k(   44) = (   0.3571429  -0.0714286  -0.5000000), wk =   0.0233236
        k(   45) = (  -0.5000000  -0.3571429   0.0714286), wk =   0.0466472
        k(   46) = (  -0.0714286  -0.5000000   0.3571429), wk =   0.0466472
        k(   47) = (  -0.5000000   0.5000000   0.0714286), wk =   0.0116618
        k(   48) = (   0.2142857  -0.2142857   0.2142857), wk =   0.0233236
        k(   49) = (   0.2142857  -0.2142857   0.3571429), wk =   0.0233236
        k(   50) = (   0.3571429  -0.2142857   0.2142857), wk =   0.0466472
        k(   51) = (  -0.3571429  -0.2142857  -0.2142857), wk =   0.0466472
        k(   52) = (   0.2142857  -0.2142857  -0.5000000), wk =   0.0116618
        k(   53) = (  -0.5000000  -0.2142857   0.2142857), wk =   0.0466472
        k(   54) = (   0.3571429  -0.2142857   0.3571429), wk =   0.0466472
        k(   55) = (   0.3571429  -0.3571429   0.2142857), wk =   0.0233236
        k(   56) = (  -0.3571429  -0.3571429  -0.2142857), wk =   0.0233236
        k(   57) = (   0.3571429  -0.2142857  -0.5000000), wk =   0.0233236
        k(   58) = (  -0.5000000  -0.3571429   0.2142857), wk =   0.0466472
        k(   59) = (  -0.2142857  -0.5000000   0.3571429), wk =   0.0466472
        k(   60) = (  -0.5000000   0.5000000   0.2142857), wk =   0.0116618
        k(   61) = (   0.3571429  -0.3571429   0.3571429), wk =   0.0233236
        k(   62) = (   0.3571429  -0.3571429  -0.5000000), wk =   0.0116618
        k(   63) = (  -0.5000000  -0.3571429   0.3571429), wk =   0.0466472
        k(   64) = (  -0.5000000   0.5000000   0.3571429), wk =   0.0116618

     Dense  grid:   698355 G-vectors     FFT dimensions: ( 120, 120, 120)

     Estimated max dynamical RAM per process >     211.99 MB

     Estimated total dynamical RAM >       8.28 GB

     Initial potential from superposition of free atoms

     starting charge  167.97676, renormalised to  168.00000
     Starting wfcs are  168 randomized atomic wfcs

     total cpu time spent up to now is      122.2 secs

     Self-consistent Calculation

     iteration #  1     ecut=    70.00 Ry     beta= 0.70
     Davidson diagonalization with overlap
     ethr =  1.00E-02,  avg # of iterations =  2.0

     Threshold (ethr) on eigenvalues was too large:
     Diagonalizing with lowered threshold

     Davidson diagonalization with overlap
     ethr =  8.56E-04,  avg # of iterations =  3.3

     total cpu time spent up to now is      866.3 secs

     total energy              =    -326.27144841 Ry
     estimated scf accuracy    <       1.78976264 Ry

     iteration #  2     ecut=    70.00 Ry     beta= 0.70
     Davidson diagonalization with overlap
     ethr =  1.07E-03,  avg # of iterations = 13.8

     total cpu time spent up to now is     2372.6 secs

     total energy              =    -323.49448049 Ry
     estimated scf accuracy    <      33.10768943 Ry

     iteration #  3     ecut=    70.00 Ry     beta= 0.70
     Davidson diagonalization with overlap
     ethr =  1.07E-03,  avg # of iterations = 11.2

     total cpu time spent up to now is     3621.6 secs

     total energy              =    -326.74239176 Ry
     estimated scf accuracy    <       1.37845164 Ry

     iteration #  4     ecut=    70.00 Ry     beta= 0.70
     Davidson diagonalization with overlap
     ethr =  8.21E-04,  avg # of iterations =  8.2

     total cpu time spent up to now is     4529.4 secs

     total energy              =    -326.85457029 Ry
     estimated scf accuracy    <       2.12265437 Ry

     iteration #  5     ecut=    70.00 Ry     beta= 0.70
     Davidson diagonalization with overlap
     ethr =  8.21E-04,  avg # of iterations =  4.5

     total cpu time spent up to now is     5077.3 secs

     total energy              =    -326.93852319 Ry
     estimated scf accuracy    <       0.36116640 Ry

     iteration #  6     ecut=    70.00 Ry     beta= 0.70
     Davidson diagonalization with overlap
     ethr =  2.15E-04,  avg # of iterations =  6.8

     total cpu time spent up to now is     5863.1 secs

     total energy              =    -327.03028996 Ry
     estimated scf accuracy    <       0.10040277 Ry

     iteration #  7     ecut=    70.00 Ry     beta= 0.70
     Davidson diagonalization with overlap
     c_bands:  1 eigenvalues not converged
     ethr =  5.98E-05,  avg # of iterations =  6.0

     total cpu time spent up to now is     6566.5 secs

     total energy              =    -327.02507169 Ry
     estimated scf accuracy    <       0.08385412 Ry

     iteration #  8     ecut=    70.00 Ry     beta= 0.70
     Davidson diagonalization with overlap
     c_bands:  1 eigenvalues not converged
     ethr =  4.99E-05,  avg # of iterations =  5.8

     total cpu time spent up to now is     7230.2 secs

     total energy              =    -327.03073739 Ry
     estimated scf accuracy    <       0.01412216 Ry

     iteration #  9     ecut=    70.00 Ry     beta= 0.70
     Davidson diagonalization with overlap
     c_bands:  1 eigenvalues not converged
     c_bands:  1 eigenvalues not converged
     c_bands:  1 eigenvalues not converged
     c_bands:  2 eigenvalues not converged
     c_bands:  2 eigenvalues not converged
     c_bands:  1 eigenvalues not converged
     c_bands:  1 eigenvalues not converged
     c_bands:  1 eigenvalues not converged
     c_bands:  1 eigenvalues not converged
     c_bands:  2 eigenvalues not converged
     c_bands:  1 eigenvalues not converged
     c_bands:  2 eigenvalues not converged
     c_bands:  1 eigenvalues not converged
     c_bands:  1 eigenvalues not converged
     c_bands:  1 eigenvalues not converged
     c_bands:  1 eigenvalues not converged
     c_bands:  1 eigenvalues not converged
     c_bands:  1 eigenvalues not converged
     ethr =  8.41E-06,  avg # of iterations = 15.5

     total cpu time spent up to now is     8852.0 secs

     total energy              =    -327.03722931 Ry
     estimated scf accuracy    <       0.01145585 Ry

     iteration # 10     ecut=    70.00 Ry     beta= 0.70
     Davidson diagonalization with overlap
     c_bands:  1 eigenvalues not converged
     ethr =  6.82E-06,  avg # of iterations =  3.7

     total cpu time spent up to now is     9321.1 secs

     total energy              =    -327.03580354 Ry
     estimated scf accuracy    <       0.01105483 Ry

     iteration # 11     ecut=    70.00 Ry     beta= 0.70
     Davidson diagonalization with overlap
     c_bands:  1 eigenvalues not converged
     c_bands:  1 eigenvalues not converged
     ethr =  6.58E-06,  avg # of iterations =  8.3

     total cpu time spent up to now is    10227.1 secs

     total energy              =    -327.03630837 Ry
     estimated scf accuracy    <       0.00227914 Ry

     iteration # 12     ecut=    70.00 Ry     beta= 0.70
     Davidson diagonalization with overlap
     c_bands:  1 eigenvalues not converged
     c_bands:  1 eigenvalues not converged
     c_bands:  1 eigenvalues not converged
     c_bands:  1 eigenvalues not converged
     c_bands:  1 eigenvalues not converged
     c_bands:  1 eigenvalues not converged
     c_bands:  1 eigenvalues not converged
     c_bands:  1 eigenvalues not converged
     ethr =  1.36E-06,  avg # of iterations = 14.7

     total cpu time spent up to now is    11788.6 secs

     total energy              =    -327.03710986 Ry
     estimated scf accuracy    <       0.00477011 Ry

     iteration # 13     ecut=    70.00 Ry     beta= 0.70
     Davidson diagonalization with overlap
     c_bands:  1 eigenvalues not converged
     c_bands:  1 eigenvalues not converged
     ethr =  1.36E-06,  avg # of iterations =  3.7

     total cpu time spent up to now is    12262.5 secs

     total energy              =    -327.03702202 Ry
     estimated scf accuracy    <       0.00244721 Ry

     iteration # 14     ecut=    70.00 Ry     beta= 0.70
     Davidson diagonalization with overlap
     c_bands:  1 eigenvalues not converged
     ethr =  1.36E-06,  avg # of iterations =  4.4

     total cpu time spent up to now is    12794.3 secs

     total energy              =    -327.03697481 Ry
     estimated scf accuracy    <       0.00084592 Ry

     iteration # 15     ecut=    70.00 Ry     beta= 0.70
     Davidson diagonalization with overlap
     c_bands:  1 eigenvalues not converged
     c_bands:  1 eigenvalues not converged
     c_bands:  1 eigenvalues not converged
     c_bands:  1 eigenvalues not converged
     c_bands:  1 eigenvalues not converged
     c_bands:  1 eigenvalues not converged
     c_bands:  1 eigenvalues not converged
     ethr =  5.04E-07,  avg # of iterations = 15.0

     total cpu time spent up to now is    14386.1 secs

     total energy              =    -327.03733275 Ry
     estimated scf accuracy    <       0.00155407 Ry

     iteration # 16     ecut=    70.00 Ry     beta= 0.70
     Davidson diagonalization with overlap
     ethr =  5.04E-07,  avg # of iterations =  1.3

     total cpu time spent up to now is    14628.4 secs

     total energy              =    -327.03725986 Ry
     estimated scf accuracy    <       0.00125435 Ry

     iteration # 17     ecut=    70.00 Ry     beta= 0.70
     Davidson diagonalization with overlap
     ethr =  5.04E-07,  avg # of iterations =  1.7

     total cpu time spent up to now is    14904.5 secs

     total energy              =    -327.03717416 Ry
     estimated scf accuracy    <       0.00081776 Ry

     iteration # 18     ecut=    70.00 Ry     beta= 0.70
     Davidson diagonalization with overlap
     ethr =  4.87E-07,  avg # of iterations =  7.8

     total cpu time spent up to now is    15753.5 secs

     total energy              =    -327.03724625 Ry
     estimated scf accuracy    <       0.00007102 Ry

     iteration # 19     ecut=    70.00 Ry     beta= 0.70
     Davidson diagonalization with overlap
     c_bands:  1 eigenvalues not converged
     c_bands:  1 eigenvalues not converged
     c_bands:  1 eigenvalues not converged
     c_bands:  1 eigenvalues not converged
     c_bands:  1 eigenvalues not converged
     c_bands:  1 eigenvalues not converged
     c_bands:  1 eigenvalues not converged
     c_bands:  1 eigenvalues not converged
     c_bands:  1 eigenvalues not converged
     c_bands:  1 eigenvalues not converged
     c_bands:  1 eigenvalues not converged
     c_bands:  2 eigenvalues not converged
     c_bands:  1 eigenvalues not converged
     c_bands:  1 eigenvalues not converged
     c_bands:  1 eigenvalues not converged
     c_bands:  1 eigenvalues not converged
     c_bands:  1 eigenvalues not converged
     c_bands:  1 eigenvalues not converged
     ethr =  4.23E-08,  avg # of iterations = 15.5

     total cpu time spent up to now is    17381.3 secs

     total energy              =    -327.03730391 Ry
     estimated scf accuracy    <       0.00006695 Ry

     iteration # 20     ecut=    70.00 Ry     beta= 0.70
     Davidson diagonalization with overlap
     c_bands:  1 eigenvalues not converged
     c_bands:  1 eigenvalues not converged
     c_bands:  1 eigenvalues not converged
     c_bands:  1 eigenvalues not converged
     c_bands:  1 eigenvalues not converged
     ethr =  3.99E-08,  avg # of iterations =  7.3

     total cpu time spent up to now is    18197.5 secs

     total energy              =    -327.03730345 Ry
     estimated scf accuracy    <       0.00020150 Ry

     iteration # 21     ecut=    70.00 Ry     beta= 0.70
     Davidson diagonalization with overlap
     ethr =  3.99E-08,  avg # of iterations =  1.5

     total cpu time spent up to now is    18453.1 secs

     total energy              =    -327.03727836 Ry
     estimated scf accuracy    <       0.00018590 Ry

     iteration # 22     ecut=    70.00 Ry     beta= 0.70
     Davidson diagonalization with overlap
     c_bands:  1 eigenvalues not converged
     c_bands:  1 eigenvalues not converged
     c_bands:  1 eigenvalues not converged
     c_bands:  1 eigenvalues not converged
     ethr =  3.99E-08,  avg # of iterations =  8.2

     total cpu time spent up to now is    19369.6 secs

     total energy              =    -327.03728388 Ry
     estimated scf accuracy    <       0.00002851 Ry

     iteration # 23     ecut=    70.00 Ry     beta= 0.70
     Davidson diagonalization with overlap
     c_bands:  1 eigenvalues not converged
     c_bands:  1 eigenvalues not converged
     c_bands:  1 eigenvalues not converged
     c_bands:  1 eigenvalues not converged
     ethr =  1.70E-08,  avg # of iterations =  9.2

     total cpu time spent up to now is    20392.1 secs

     total energy              =    -327.03729667 Ry
     estimated scf accuracy    <       0.00000920 Ry

     iteration # 24     ecut=    70.00 Ry     beta= 0.70
     Davidson diagonalization with overlap
     c_bands:  1 eigenvalues not converged
     c_bands:  1 eigenvalues not converged
     c_bands:  1 eigenvalues not converged
     c_bands:  1 eigenvalues not converged
     c_bands:  1 eigenvalues not converged
     c_bands:  1 eigenvalues not converged
     c_bands:  1 eigenvalues not converged
     c_bands:  1 eigenvalues not converged
     c_bands:  2 eigenvalues not converged
     c_bands:  1 eigenvalues not converged
     c_bands:  1 eigenvalues not converged
     c_bands:  1 eigenvalues not converged
     c_bands:  1 eigenvalues not converged
     c_bands:  1 eigenvalues not converged
     c_bands:  1 eigenvalues not converged
     c_bands:  1 eigenvalues not converged
     c_bands:  1 eigenvalues not converged
     c_bands:  1 eigenvalues not converged
     c_bands:  1 eigenvalues not converged
     c_bands:  1 eigenvalues not converged
     c_bands:  2 eigenvalues not converged
     c_bands:  1 eigenvalues not converged
     ethr =  5.48E-09,  avg # of iterations = 17.1

     total cpu time spent up to now is    22183.3 secs

     total energy              =    -327.03727787 Ry
     estimated scf accuracy    <       0.00026374 Ry

     iteration # 25     ecut=    70.00 Ry     beta= 0.70
     Davidson diagonalization with overlap
     c_bands:  1 eigenvalues not converged
     c_bands:  1 eigenvalues not converged
     c_bands:  1 eigenvalues not converged
     c_bands:  1 eigenvalues not converged
     c_bands:  1 eigenvalues not converged
     c_bands:  1 eigenvalues not converged
     c_bands:  1 eigenvalues not converged
     c_bands:  1 eigenvalues not converged
     c_bands:  1 eigenvalues not converged
     c_bands:  1 eigenvalues not converged
     c_bands:  1 eigenvalues not converged
     c_bands:  1 eigenvalues not converged
     c_bands:  1 eigenvalues not converged
     c_bands:  1 eigenvalues not converged
     c_bands:  1 eigenvalues not converged
     c_bands:  1 eigenvalues not converged
     c_bands:  1 eigenvalues not converged
     c_bands:  1 eigenvalues not converged
     c_bands:  1 eigenvalues not converged
     c_bands:  1 eigenvalues not converged
     ethr =  5.48E-09,  avg # of iterations = 16.8

     total cpu time spent up to now is    23935.0 secs

     total energy              =    -327.03728816 Ry
     estimated scf accuracy    <       0.00001147 Ry

     iteration # 26     ecut=    70.00 Ry     beta= 0.70
     Davidson diagonalization with overlap
     c_bands:  1 eigenvalues not converged
     c_bands:  1 eigenvalues not converged
     c_bands:  1 eigenvalues not converged
     c_bands:  1 eigenvalues not converged
     c_bands:  1 eigenvalues not converged
     c_bands:  1 eigenvalues not converged
     c_bands:  1 eigenvalues not converged
     c_bands:  1 eigenvalues not converged
     c_bands:  1 eigenvalues not converged
     c_bands:  1 eigenvalues not converged
     ethr =  5.48E-09,  avg # of iterations = 10.7

     total cpu time spent up to now is    25087.0 secs

     total energy              =    -327.03729098 Ry
     estimated scf accuracy    <       0.00000506 Ry

     iteration # 27     ecut=    70.00 Ry     beta= 0.70
     Davidson diagonalization with overlap
     c_bands:  1 eigenvalues not converged
     c_bands:  1 eigenvalues not converged
     c_bands:  1 eigenvalues not converged
     ethr =  3.01E-09,  avg # of iterations =  2.9

     total cpu time spent up to now is    25478.2 secs

     total energy              =    -327.03729034 Ry
     estimated scf accuracy    <       0.00000498 Ry

     iteration # 28     ecut=    70.00 Ry     beta= 0.70
     Davidson diagonalization with overlap
     ethr =  2.97E-09,  avg # of iterations =  4.8

     total cpu time spent up to now is    26048.9 secs

     total energy              =    -327.03729045 Ry
     estimated scf accuracy    <       0.00000159 Ry

     iteration # 29     ecut=    70.00 Ry     beta= 0.70
     Davidson diagonalization with overlap
     c_bands:  1 eigenvalues not converged
     c_bands:  1 eigenvalues not converged
     c_bands:  1 eigenvalues not converged
     c_bands:  1 eigenvalues not converged
     c_bands:  1 eigenvalues not converged
     c_bands:  1 eigenvalues not converged
     ethr =  9.46E-10,  avg # of iterations =  9.6

     total cpu time spent up to now is    27096.0 secs

     End of self-consistent calculation

          k = 0.0714 0.0714 0.0714 ( 87352 PWs)   bands (ev):

    -8.6113  -7.7485  -7.7391  -7.7345  -7.1221  -7.0649  -6.9075  -6.7485
    -6.6867  -6.6133  -6.2978  -6.2839  -6.0262  -5.8348  -5.7926  -5.5722
    -5.4862  -5.2372  -4.7870  -4.6528  -4.5982  -4.5444  -4.4837  -4.4477
    -4.2883  -3.7844  -3.6937  -3.5433  -3.4504  -3.2993  -3.2059  -3.0875
    -3.0504  -2.9368  -2.7978  -2.2826  -2.1516  -2.0441  -1.5095  -1.4111
    -1.1851  -0.8996  -0.8301  -0.7755  -0.7514  -0.7347  -0.5964  -0.5648
    -0.4997  -0.4148  -0.2026  -0.0485   0.0095   0.0918   0.0924   0.2739
     0.3037   0.4162   0.5805   0.7142   0.7373   0.8350   0.8992   0.9403
     0.9555   0.9658   1.0824   1.1332   1.2445   1.2618   1.3911   1.4994
     1.5266   1.5739   1.6034   1.7398   1.7889   1.8371   1.9324   2.0589
     2.1351   2.1594   2.2503   2.2665

          k = 0.0714 0.0714 0.2143 ( 87329 PWs)   bands (ev):

    -8.6042  -7.7711  -7.7445  -7.7266  -7.1458  -7.0601  -6.9250  -6.7459
    -6.6848  -6.5631  -6.2851  -6.2641  -6.0031  -5.8420  -5.7923  -5.5801
    -5.4861  -5.2871  -4.7915  -4.6473  -4.5898  -4.5387  -4.4825  -4.4468
    -4.3266  -3.8123  -3.6696  -3.5439  -3.4602  -3.3438  -3.2194  -3.0778
    -3.0444  -2.8951  -2.7004  -2.3078  -2.1495  -2.0302  -1.4937  -1.4812
    -1.2105  -0.8980  -0.8360  -0.7607  -0.7567  -0.7196  -0.6082  -0.5492
    -0.5216  -0.3795  -0.2051  -0.0116  -0.0115   0.0581   0.0762   0.2488
     0.3036   0.3841   0.5371   0.6826   0.6957   0.7462   0.8767   0.9272
     0.9350   0.9900   1.1639   1.2428   1.2733   1.3644   1.4052   1.5310
     1.5547   1.6506   1.6774   1.7828   1.7992   1.8740   1.9675   2.0669
     2.1374   2.1594   2.1800   2.3224

          k = 0.0714 0.0714 0.3571 ( 87253 PWs)   bands (ev):

    -8.5949  -7.8088  -7.7394  -7.7160  -7.1750  -7.0547  -6.9460  -6.7427
    -6.6824  -6.5064  -6.2620  -6.2347  -5.9749  -5.8509  -5.7920  -5.5924
    -5.4861  -5.3574  -4.7970  -4.6409  -4.5787  -4.5334  -4.4783  -4.4494
    -4.3598  -3.8463  -3.6470  -3.5454  -3.4767  -3.3869  -3.2344  -3.0677
    -3.0279  -2.8507  -2.5769  -2.3404  -2.1470  -2.0143  -1.6032  -1.4397
    -1.2352  -0.9128  -0.8417  -0.7628  -0.7317  -0.6950  -0.6337  -0.5494
    -0.5310  -0.3511  -0.2077  -0.0326   0.0005   0.0628   0.0658   0.2117
     0.3057   0.3375   0.4770   0.6244   0.6395   0.7156   0.8525   0.9356
     0.9405   1.0251   1.2230   1.2884   1.3993   1.4151   1.4910   1.5448
     1.5756   1.6637   1.6940   1.8728   1.9043   1.9486   1.9973   2.0510
     2.1415   2.1557   2.2559   2.3138

          k = 0.0714 0.0714-0.5000 ( 87318 PWs)   bands (ev):

    -8.5906  -7.8250  -7.7371  -7.7111  -7.1880  -7.0526  -6.9551  -6.7413
    -6.6813  -6.4852  -6.2443  -6.2217  -5.9625  -5.8548  -5.7920  -5.5998
    -5.4860  -5.3917  -4.7995  -4.6381  -4.5735  -4.5318  -4.4752  -4.4527
    -4.3698  -3.8612  -3.6388  -3.5464  -3.4864  -3.4016  -3.2406  -3.0637
    -3.0184  -2.8326  -2.5202  -2.3531  -2.1460  -2.0077  -1.6569  -1.4185
    -1.2445  -0.9215  -0.8437  -0.7653  -0.7234  -0.6762  -0.6480  -0.5641
    -0.5242  -0.3443  -0.2097  -0.0366  -0.0094   0.0609   0.0984   0.1861
     0.3007   0.3149   0.4487   0.5997   0.6253   0.6961   0.8587   0.9362
     0.9471   1.0446   1.2412   1.2953   1.4087   1.4782   1.5358   1.5480
     1.6155   1.6587   1.7060   1.8526   1.9493   1.9514   2.0222   2.1170
     2.1693   2.1932   2.2607   2.2779

          k = 0.0714 0.2143 0.2143 ( 87335 PWs)   bands (ev):

    -8.5961  -7.7740  -7.7641  -7.7264  -7.1597  -7.0872  -6.9352  -6.7084
    -6.6400  -6.5634  -6.2861  -6.2587  -6.0064  -5.8182  -5.7967  -5.5475
    -5.4820  -5.2582  -4.8349  -4.7172  -4.6309  -4.5595  -4.5213  -4.4757
    -4.3028  -3.8146  -3.6281  -3.5781  -3.4159  -3.2945  -3.1280  -3.0976
    -3.0055  -2.8805  -2.6691  -2.3351  -2.2188  -2.0749  -1.5563  -1.4587
    -1.2644  -0.9013  -0.8488  -0.7943  -0.7606  -0.6763  -0.6342  -0.5605
    -0.4691  -0.3273  -0.2240  -0.0065   0.0019   0.0462   0.1296   0.1985
     0.2819   0.4236   0.5440   0.6550   0.7345   0.7849   0.8590   0.9263
     0.9639   1.0176   1.1806   1.2427   1.2738   1.3801   1.4414   1.5179
     1.5789   1.6520   1.7184   1.8179   1.8534   1.9082   1.9699   2.0170
     2.1250   2.1602   2.2513   2.3263

          k = 0.0714 0.2143 0.3571 ( 87302 PWs)   bands (ev):

    -8.5868  -7.8019  -7.7673  -7.7175  -7.1879  -7.0833  -6.9563  -6.7051
    -6.6379  -6.5074  -6.2605  -6.2302  -5.9774  -5.8262  -5.7951  -5.5564
    -5.4878  -5.3339  -4.8377  -4.7141  -4.6276  -4.5586  -4.5105  -4.4737
    -4.3320  -3.8480  -3.6020  -3.5801  -3.4480  -3.3108  -3.1365  -3.0886
    -2.9917  -2.8402  -2.5546  -2.3685  -2.2299  -2.0645  -1.5997  -1.4822
    -1.2898  -0.9104  -0.8608  -0.7919  -0.7533  -0.6549  -0.6231  -0.5294
    -0.5109  -0.2850  -0.2402  -0.0256  -0.0046   0.0786   0.1137   0.1926
     0.2786   0.3913   0.5092   0.6479   0.6818   0.7698   0.8649   0.8864
     0.9632   1.0373   1.2448   1.2769   1.3112   1.4030   1.4542   1.5442
     1.6215   1.6783   1.7252   1.8494   1.9057   1.9794   2.0127   2.0385
     2.1449   2.1907   2.2494   2.2647

          k = 0.0714 0.2143-0.5000 ( 87322 PWs)   bands (ev):

    -8.5825  -7.8181  -7.7643  -7.7132  -7.2005  -7.0816  -6.9655  -6.7037
    -6.6369  -6.4866  -6.2416  -6.2176  -5.9648  -5.8298  -5.7944  -5.5619
    -5.4906  -5.3705  -4.8389  -4.7125  -4.6267  -4.5575  -4.5050  -4.4737
    -4.3419  -3.8626  -3.5930  -3.5816  -3.4615  -3.3165  -3.1398  -3.0847
    -2.9840  -2.8234  -2.4994  -2.3858  -2.2331  -2.0604  -1.6432  -1.4728
    -1.2967  -0.9183  -0.8674  -0.7881  -0.7481  -0.6589  -0.6049  -0.5340
    -0.5137  -0.2755  -0.2464  -0.0379   0.0024   0.0968   0.1207   0.1883
     0.2651   0.3779   0.4844   0.6283   0.6684   0.7776   0.8610   0.8807
     0.9691   1.0487   1.2460   1.2923   1.3309   1.4151   1.4793   1.5444
     1.6728   1.6764   1.7309   1.8272   1.9247   1.9970   2.0398   2.1191
     2.1374   2.1615   2.2107   2.3148

          k = 0.0714 0.3571 0.3571 ( 87268 PWs)   bands (ev):

    -8.5762  -7.8091  -7.7929  -7.7087  -7.2041  -7.1187  -6.9655  -6.6775
    -6.5677  -6.5059  -6.2555  -6.2297  -5.9911  -5.7952  -5.7779  -5.5168
    -5.4872  -5.3101  -4.9374  -4.7617  -4.6868  -4.6044  -4.5300  -4.4592
    -4.3131  -3.8729  -3.6008  -3.5536  -3.4251  -3.2635  -3.1215  -2.9969
    -2.9085  -2.8211  -2.5314  -2.3991  -2.3282  -2.1231  -1.6662  -1.5118
    -1.3128  -0.9485  -0.8640  -0.8211  -0.7608  -0.6863  -0.5744  -0.5050
    -0.4349  -0.2825  -0.2128  -0.0634   0.0020   0.0594   0.1443   0.2276
     0.3449   0.3937   0.5334   0.6581   0.7169   0.7906   0.8390   0.9499
     1.0280   1.1043   1.1733   1.2394   1.3158   1.3721   1.4291   1.5315
     1.6238   1.6522   1.7132   1.8583   1.8837   1.9149   2.0569   2.0939
     2.1428   2.1978   2.2451   2.3257

          k = 0.0714 0.3571-0.5000 ( 87328 PWs)   bands (ev):

    -8.5718  -7.8092  -7.8058  -7.7048  -7.2165  -7.1172  -6.9749  -6.6757
    -6.5670  -6.4859  -6.2359  -6.2168  -5.9792  -5.7956  -5.7764  -5.5207
    -5.4938  -5.3503  -4.9356  -4.7626  -4.6903  -4.6027  -4.5253  -4.4543
    -4.3219  -3.8881  -3.6010  -3.5427  -3.4380  -3.2672  -3.1153  -2.9896
    -2.9105  -2.8051  -2.4892  -2.4106  -2.3379  -2.1213  -1.6708  -1.5511
    -1.3099  -0.9555  -0.8704  -0.8192  -0.7599  -0.6902  -0.5493  -0.4859
    -0.4470  -0.2984  -0.2002  -0.0705   0.0129   0.0818   0.1301   0.2509
     0.3322   0.3921   0.5395   0.6423   0.6738   0.8195   0.8544   0.9245
     1.0301   1.1079   1.1675   1.2314   1.3359   1.4054   1.4486   1.4942
     1.5908   1.6535   1.7474   1.8440   1.8928   1.9641   2.0450   2.1089
     2.1435   2.1938   2.2064   2.3572

          k = 0.0714-0.5000-0.5000 ( 87220 PWs)   bands (ev):

    -8.5669  -7.8241  -7.8051  -7.7002  -7.2230  -7.1340  -6.9779  -6.6662
    -6.5363  -6.4817  -6.2318  -6.2181  -5.9894  -5.7734  -5.7659  -5.5101
    -5.4934  -5.3431  -4.9915  -4.7707  -4.7111  -4.6252  -4.5300  -4.4359
    -4.3148  -3.9178  -3.6075  -3.5253  -3.4227  -3.2539  -3.1309  -2.9318
    -2.8516  -2.7936  -2.5091  -2.4178  -2.3596  -2.1454  -1.7187  -1.5693
    -1.3042  -0.9707  -0.8916  -0.8199  -0.7608  -0.7066  -0.5409  -0.4533
    -0.4146  -0.3109  -0.1423  -0.1081   0.0043   0.0509   0.1378   0.2674
     0.4032   0.4618   0.4633   0.6697   0.7123   0.7945   0.8590   0.9197
     1.0647   1.0956   1.2214   1.2764   1.3179   1.3602   1.4085   1.4983
     1.5234   1.5789   1.7316   1.8411   1.9056   1.9699   2.0571   2.1380
     2.1623   2.2145   2.2374   2.3228

          k = 0.2143 0.2143 0.2143 ( 87275 PWs)   bands (ev):

    -8.5881  -7.7715  -7.7577  -7.7565  -7.1751  -7.1113  -6.9462  -6.6554
    -6.6120  -6.5646  -6.2913  -6.2513  -5.9988  -5.8003  -5.7946  -5.5112
    -5.4821  -5.2347  -4.8564  -4.7772  -4.6678  -4.5982  -4.5872  -4.5020
    -4.2898  -3.7753  -3.5950  -3.5630  -3.4291  -3.1934  -3.1267  -3.0687
    -2.9970  -2.8665  -2.6343  -2.3842  -2.2651  -2.1247  -1.5580  -1.4852
    -1.3149  -0.8942  -0.8891  -0.7831  -0.7514  -0.6511  -0.6472  -0.5714
    -0.4058  -0.2660  -0.2315  -0.0340  -0.0089   0.0509   0.1941   0.1979
     0.2854   0.3832   0.5488   0.6672   0.7128   0.7946   0.8093   0.9239
     1.0253   1.0385   1.2126   1.2158   1.3021   1.3787   1.4194   1.5794
     1.6217   1.7087   1.7184   1.7865   1.8560   1.9202   1.9283   2.0135
     2.1240   2.1597   2.2155   2.2614

          k = 0.2143 0.2143 0.3571 ( 87299 PWs)   bands (ev):

    -8.5788  -7.7951  -7.7663  -7.7466  -7.2002  -7.1110  -6.9677  -6.6522
    -6.6097  -6.5098  -6.2631  -6.2227  -5.9654  -5.8025  -5.8015  -5.5212
    -5.4888  -5.3142  -4.8591  -4.7709  -4.6732  -4.5932  -4.5792  -4.4992
    -4.3151  -3.8076  -3.5706  -3.5635  -3.4543  -3.2007  -3.1156  -3.0818
    -2.9812  -2.8267  -2.5349  -2.4006  -2.3023  -2.1174  -1.5682  -1.5187
    -1.3652  -0.8995  -0.8792  -0.7916  -0.7603  -0.6402  -0.6069  -0.5342
    -0.4562  -0.2841  -0.1907  -0.0805   0.0053   0.0882   0.1907   0.2012
     0.2996   0.3757   0.5369   0.6694   0.7243   0.7848   0.8001   0.8954
     0.9588   1.0517   1.2410   1.2458   1.3444   1.3617   1.4250   1.6257
     1.6499   1.6833   1.6983   1.8294   1.8792   1.9523   1.9869   2.0448
     2.0804   2.1769   2.1932   2.2880

          k = 0.2143 0.2143-0.5000 ( 87344 PWs)   bands (ev):

    -8.5745  -7.8113  -7.7640  -7.7417  -7.2120  -7.1102  -6.9771  -6.6507
    -6.6087  -6.4898  -6.2430  -6.2099  -5.9505  -5.8061  -5.8023  -5.5271
    -5.4921  -5.3528  -4.8602  -4.7680  -4.6757  -4.5905  -4.5757  -4.4983
    -4.3237  -3.8216  -3.5648  -3.5641  -3.4624  -3.2029  -3.1048  -3.0935
    -2.9726  -2.8100  -2.4920  -2.4039  -2.3179  -2.1145  -1.6129  -1.4990
    -1.3815  -0.9039  -0.8841  -0.7835  -0.7647  -0.6386  -0.5891  -0.5174
    -0.4789  -0.2950  -0.1777  -0.1020   0.0231   0.1137   0.1807   0.2060
     0.3053   0.3726   0.5147   0.6657   0.7253   0.7985   0.8175   0.8530
     0.9439   1.0574   1.2392   1.2624   1.3505   1.3869   1.4328   1.6215
     1.6714   1.6788   1.6962   1.8185   1.9007   1.9990   2.0056   2.0401
     2.0531   2.1338   2.2165   2.3300

          k = 0.2143 0.3571 0.3571 ( 87285 PWs)   bands (ev):

    -8.5683  -7.8007  -7.7863  -7.7436  -7.2143  -7.1477  -6.9784  -6.6146
    -6.5488  -6.5108  -6.2614  -6.2174  -5.9689  -5.7884  -5.7625  -5.4964
    -5.4870  -5.2962  -4.9360  -4.8160  -4.7354  -4.6374  -4.5771  -4.5148
    -4.3154  -3.7980  -3.5868  -3.5408  -3.4159  -3.1480  -3.1282  -2.9865
    -2.9201  -2.8034  -2.5626  -2.4212  -2.3426  -2.1750  -1.6368  -1.5173
    -1.4092  -0.9423  -0.8477  -0.8183  -0.7703  -0.6606  -0.5484  -0.5177
    -0.3811  -0.3152  -0.1273  -0.1039   0.0113   0.0852   0.1958   0.2580
     0.3427   0.3807   0.5405   0.6590   0.7252   0.7802   0.8206   0.9574
     1.0037   1.0674   1.1502   1.2449   1.2875   1.3310   1.4979   1.5654
     1.6009   1.6645   1.7505   1.7809   1.8580   1.9626   1.9805   2.0332
     2.0845   2.1699   2.2150   2.3146

          k = 0.2143 0.3571-0.5000 ( 87232 PWs)   bands (ev):

    -8.5640  -7.8026  -7.7976  -7.7395  -7.2254  -7.1478  -6.9879  -6.6130
    -6.5476  -6.4922  -6.2404  -6.2037  -5.9537  -5.7877  -5.7659  -5.5020
    -5.4917  -5.3378  -4.9341  -4.8151  -4.7398  -4.6351  -4.5738  -4.5124
    -4.3229  -3.8122  -3.5865  -3.5314  -3.4260  -3.1394  -3.1328  -2.9770
    -2.9219  -2.7876  -2.5404  -2.4206  -2.3532  -2.1741  -1.6337  -1.5546
    -1.4149  -0.9472  -0.8471  -0.8256  -0.7676  -0.6579  -0.5186  -0.5011
    -0.3975  -0.3376  -0.1392  -0.1065   0.0304   0.1143   0.1971   0.2889
     0.3305   0.3897   0.5339   0.6706   0.7222   0.7860   0.8378   0.9438
     0.9697   1.0673   1.1619   1.2550   1.2693   1.3192   1.5018   1.5346
     1.6129   1.6511   1.7681   1.7993   1.8337   1.9460   2.0102   2.0377
     2.0814   2.1432   2.2644   2.2995

          k = 0.2143-0.5000-0.5000 ( 87228 PWs)   bands (ev):

    -8.5591  -7.8154  -7.7987  -7.7345  -7.2282  -7.1687  -6.9910  -6.6023
    -6.5194  -6.4875  -6.2368  -6.2017  -5.9639  -5.7665  -5.7435  -5.5189
    -5.4837  -5.3336  -4.9847  -4.8226  -4.7554  -4.6456  -4.5592  -4.5054
    -4.3324  -3.8398  -3.6109  -3.5301  -3.3812  -3.1550  -3.1248  -2.9211
    -2.8709  -2.7734  -2.5786  -2.4759  -2.2917  -2.1922  -1.6893  -1.5677
    -1.4049  -0.9659  -0.8828  -0.8277  -0.7488  -0.6645  -0.5012  -0.4790
    -0.4003  -0.3032  -0.1622  -0.0581   0.0235   0.1132   0.1691   0.2695
     0.4024   0.4262   0.5332   0.6545   0.7403   0.8046   0.8369   0.9093
     0.9738   1.0961   1.1737   1.2385   1.2731   1.3252   1.4423   1.5211
     1.5356   1.5873   1.7001   1.8308   1.8702   1.9469   2.0175   2.0723
     2.1127   2.2023   2.2689   2.2786

          k = 0.3571 0.3571 0.3571 ( 87299 PWs)   bands (ev):

    -8.5581  -7.7970  -7.7784  -7.7762  -7.2274  -7.1842  -6.9914  -6.5422
    -6.5188  -6.5181  -6.2635  -6.2064  -5.9578  -5.7655  -5.7297  -5.4992
    -5.4739  -5.2830  -4.9420  -4.9081  -4.7933  -4.6631  -4.6017  -4.5415
    -4.3333  -3.7456  -3.5714  -3.5549  -3.3652  -3.1805  -3.0093  -2.9465
    -2.9139  -2.7842  -2.6134  -2.4700  -2.3017  -2.2352  -1.6297  -1.5614
    -1.4779  -0.9586  -0.8230  -0.8109  -0.7654  -0.6361  -0.5450  -0.4886
    -0.3517  -0.3054  -0.1351  -0.0846   0.0152   0.1218   0.2420   0.2502
     0.3907   0.3946   0.5657   0.6290   0.6982   0.7863   0.8411   0.9327
     0.9975   1.0656   1.1297   1.2397   1.2415   1.3728   1.4419   1.5150
     1.5343   1.6331   1.7498   1.7888   1.8516   1.8946   1.9604   2.0699
     2.1056   2.1532   2.1892   2.2733

          k = 0.3571 0.3571-0.5000 ( 87226 PWs)   bands (ev):

    -8.5538  -7.7947  -7.7942  -7.7719  -7.2359  -7.1870  -7.0010  -6.5403
    -6.5179  -6.5008  -6.2416  -6.1912  -5.9395  -5.7678  -5.7329  -5.5067
    -5.4769  -5.3266  -4.9403  -4.9050  -4.7984  -4.6619  -4.5996  -4.5396
    -4.3395  -3.7593  -3.5714  -3.5448  -3.3761  -3.1740  -2.9973  -2.9409
    -2.9198  -2.7697  -2.5898  -2.4898  -2.3017  -2.2357  -1.6115  -1.5764
    -1.5189  -0.9605  -0.8356  -0.8170  -0.7597  -0.6248  -0.4975  -0.4727
    -0.3827  -0.3287  -0.1605  -0.0802   0.0336   0.1302   0.2566   0.2737
     0.3972   0.4255   0.5708   0.6734   0.7205   0.8089   0.8336   0.8980
     0.9997   1.0447   1.1363   1.1891   1.2898   1.3258   1.4112   1.4477
     1.5240   1.6391   1.7603   1.7872   1.8602   1.8975   1.9660   2.0563
     2.0687   2.1880   2.2230   2.2326

          k = 0.3571-0.5000-0.5000 ( 87196 PWs)   bands (ev):

    -8.5490  -7.8064  -7.7904  -7.7722  -7.2354  -7.2104  -7.0053  -6.5228
    -6.5078  -6.4859  -6.2399  -6.1867  -5.9423  -5.7462  -5.7095  -5.5230
    -5.4782  -5.3223  -4.9760  -4.9199  -4.8109  -4.6771  -4.5989  -4.5263
    -4.3583  -3.7588  -3.6019  -3.5461  -3.3116  -3.1937  -2.9925  -2.9258
    -2.8662  -2.7574  -2.6142  -2.5332  -2.2597  -2.2466  -1.6629  -1.5643
    -1.5349  -0.9730  -0.8788  -0.8017  -0.7247  -0.6136  -0.4732  -0.4647
    -0.4134  -0.2683  -0.1797  -0.0549  -0.0085   0.1746   0.2469   0.2592
     0.3524   0.4949   0.6354   0.6917   0.7463   0.7806   0.8620   0.8760
     0.9852   1.0415   1.0874   1.2070   1.2845   1.2996   1.3640   1.4020
     1.4869   1.6233   1.7035   1.7824   1.8586   1.9060   1.9781   2.0338
     2.0959   2.1881   2.2191   2.2799

          k =-0.5000-0.5000-0.5000 ( 87128 PWs)   bands (ev):

    -8.5443  -7.8075  -7.7865  -7.7828  -7.2358  -7.2318  -7.0108  -6.5122
    -6.4865  -6.4761  -6.2403  -6.1820  -5.9368  -5.7333  -5.6897  -5.5215
    -5.4808  -5.3168  -4.9782  -4.9627  -4.8307  -4.7083  -4.6138  -4.5153
    -4.3725  -3.7265  -3.5827  -3.5674  -3.2651  -3.2162  -2.9951  -2.9063
    -2.8393  -2.7480  -2.6199  -2.5538  -2.2861  -2.2393  -1.6695  -1.5887
    -1.5524  -0.9844  -0.8759  -0.7804  -0.7051  -0.6142  -0.4646  -0.4469
    -0.4011  -0.2554  -0.1853  -0.0571  -0.0210   0.1727   0.2326   0.2521
     0.3495   0.6296   0.6341   0.6875   0.7591   0.8300   0.8440   0.9318
     0.9548   1.0072   1.1739   1.1794   1.1846   1.2312   1.2846   1.3322
     1.4693   1.6802   1.6859   1.7790   1.8425   1.9183   1.9995   2.0331
     2.0630   2.1159   2.2137   2.2221

          k = 0.0714-0.0714 0.0714 ( 87352 PWs)   bands (ev):

    -8.6113  -7.7492  -7.7391  -7.7339  -7.1196  -7.0676  -6.9087  -6.7464
    -6.6872  -6.6137  -6.2907  -6.2891  -6.0294  -5.8339  -5.7846  -5.5857
    -5.4856  -5.2381  -4.7819  -4.6477  -4.6216  -4.5136  -4.4817  -4.4338
    -4.2988  -3.8055  -3.7052  -3.5809  -3.3969  -3.2990  -3.2057  -3.0900
    -3.0506  -2.9289  -2.8127  -2.2837  -2.1345  -2.0386  -1.5190  -1.4085
    -1.1898  -0.8838  -0.8316  -0.7804  -0.7497  -0.7433  -0.5661  -0.5496
    -0.5446  -0.4250  -0.1971  -0.0421   0.0034   0.0918   0.1069   0.2023
     0.3056   0.4549   0.5945   0.6868   0.8142   0.8691   0.8811   0.9175
     0.9550   0.9979   1.0436   1.1057   1.1896   1.2726   1.3978   1.4659
     1.5451   1.5935   1.6138   1.7477   1.7578   1.8631   1.9510   2.0700
     2.0932   2.1612   2.2221   2.2762

          k = 0.0714-0.0714 0.2143 ( 87329 PWs)   bands (ev):

    -8.6042  -7.7711  -7.7452  -7.7259  -7.1440  -7.0623  -6.9257  -6.7441
    -6.6852  -6.5635  -6.2819  -6.2652  -6.0068  -5.8411  -5.7843  -5.5911
    -5.4874  -5.2879  -4.7865  -4.6456  -4.6112  -4.5032  -4.4831  -4.4291
    -4.3416  -3.8324  -3.6822  -3.5820  -3.4011  -3.3513  -3.2194  -3.0777
    -3.0435  -2.8902  -2.7137  -2.3113  -2.1274  -2.0260  -1.5148  -1.4681
    -1.2094  -0.8977  -0.8338  -0.7821  -0.7296  -0.7280  -0.5973  -0.5502
    -0.5303  -0.3925  -0.2013  -0.0077  -0.0072   0.0640   0.0739   0.2167
     0.2799   0.4071   0.5356   0.6759   0.7229   0.7952   0.8407   0.9324
     0.9563   1.0267   1.1264   1.2023   1.2554   1.2945   1.4703   1.4846
     1.6222   1.6241   1.7222   1.7409   1.7949   1.9001   1.9633   2.0631
     2.1450   2.1656   2.1955   2.2826

          k = 0.2143-0.0714 0.0714 ( 87329 PWs)   bands (ev):

    -8.6032  -7.7797  -7.7326  -7.7319  -7.1310  -7.0972  -6.9190  -6.7083
    -6.6418  -6.6144  -6.2917  -6.2830  -6.0368  -5.8084  -5.7831  -5.5727
    -5.4750  -5.2067  -4.8250  -4.7181  -4.6489  -4.5238  -4.5069  -4.4652
    -4.2853  -3.8376  -3.6835  -3.5997  -3.3252  -3.2783  -3.1215  -3.1019
    -3.0166  -2.9000  -2.7946  -2.3050  -2.1758  -2.0697  -1.5817  -1.3957
    -1.2493  -0.8829  -0.8391  -0.7989  -0.7521  -0.7243  -0.6095  -0.5736
    -0.4748  -0.4032  -0.1860  -0.0110   0.0293   0.0585   0.0960   0.1601
     0.2996   0.4660   0.5814   0.6365   0.8028   0.8664   0.9225   0.9597
     0.9734   1.0108   1.0710   1.1206   1.2275   1.3188   1.4304   1.5277
     1.5679   1.6160   1.6727   1.7243   1.8009   1.8945   1.9635   2.0714
     2.0803   2.1756   2.2519   2.3357

          k =-0.2143-0.0714-0.0714 ( 87329 PWs)   bands (ev):

    -8.6032  -7.7793  -7.7331  -7.7319  -7.1381  -7.0895  -6.9176  -6.7111
    -6.6417  -6.6136  -6.3007  -6.2777  -6.0303  -5.8120  -5.7975  -5.5419
    -5.4778  -5.2043  -4.8329  -4.7193  -4.6348  -4.5589  -4.5291  -4.4786
    -4.2704  -3.7870  -3.6562  -3.5777  -3.3897  -3.2764  -3.1227  -3.1011
    -3.0133  -2.9167  -2.7562  -2.3145  -2.2060  -2.0842  -1.5683  -1.3997
    -1.2304  -0.9116  -0.8465  -0.7808  -0.7534  -0.7095  -0.6328  -0.5905
    -0.4376  -0.3736  -0.2098  -0.0223   0.0160   0.0601   0.1480   0.2015
     0.2807   0.4426   0.5690   0.6314   0.7658   0.8452   0.8750   0.9233
     0.9999   1.0228   1.1273   1.1928   1.2169   1.3788   1.4374   1.4896
     1.5530   1.6185   1.7013   1.7423   1.8089   1.8883   1.9705   2.0112
     2.0766   2.1597   2.2940   2.3315

          k = 0.0714-0.0714 0.3571 ( 87253 PWs)   bands (ev):

    -8.5949  -7.8089  -7.7401  -7.7153  -7.1737  -7.0569  -6.9461  -6.7411
    -6.6827  -6.5069  -6.2601  -6.2344  -5.9795  -5.8501  -5.7841  -5.6000
    -5.4899  -5.3580  -4.7922  -4.6429  -4.5985  -4.4894  -4.4836  -4.4239
    -4.3842  -3.8654  -3.6602  -3.5844  -3.4077  -3.4061  -3.2348  -3.0660
    -3.0258  -2.8480  -2.5902  -2.3448  -2.1201  -2.0118  -1.6110  -1.4400
    -1.2295  -0.9182  -0.8350  -0.7914  -0.7146  -0.6897  -0.6361  -0.5657
    -0.5091  -0.3663  -0.2075  -0.0217   0.0225   0.0357   0.0819   0.2263
     0.2429   0.3442   0.4707   0.5846   0.7135   0.7202   0.8461   0.9508
     0.9620   1.0603   1.1794   1.2729   1.3494   1.3764   1.4572   1.5275
     1.6507   1.6641   1.7338   1.8832   1.9251   1.9324   1.9708   2.0505
     2.1623   2.1651   2.2811   2.3178

          k = 0.3571-0.0714 0.0714 ( 87253 PWs)   bands (ev):

    -8.5926  -7.8219  -7.7237  -7.7224  -7.1480  -7.1314  -6.9260  -6.6837
    -6.6149  -6.5655  -6.2895  -6.2841  -6.0471  -5.7895  -5.7720  -5.5319
    -5.4613  -5.1688  -4.9411  -4.7519  -4.6836  -4.5797  -4.5395  -4.4678
    -4.2689  -3.8531  -3.6464  -3.5963  -3.3312  -3.2446  -3.1509  -2.9975
    -2.9160  -2.8782  -2.7395  -2.3157  -2.2716  -2.1175  -1.6854  -1.3557
    -1.2983  -0.9201  -0.8586  -0.7904  -0.7666  -0.6993  -0.6479  -0.6030
    -0.4079  -0.3517  -0.1827  -0.0115   0.0203   0.0475   0.0984   0.2034
     0.2997   0.4101   0.5203   0.6238   0.7605   0.8664   0.8994   0.9843
     1.0500   1.1012   1.1441   1.1892   1.2842   1.3637   1.4845   1.5103
     1.5541   1.6406   1.7053   1.7755   1.8731   1.8906   1.9784   2.0857
     2.1131   2.1989   2.3120   2.3598

          k =-0.3571-0.0714-0.0714 ( 87253 PWs)   bands (ev):

    -8.5926  -7.8217  -7.7236  -7.7226  -7.1567  -7.1223  -6.9255  -6.6847
    -6.6145  -6.5661  -6.2981  -6.2782  -6.0424  -5.8031  -5.7705  -5.5047
    -5.4666  -5.1670  -4.9435  -4.7580  -4.6755  -4.6055  -4.5508  -4.4787
    -4.2609  -3.8111  -3.6192  -3.6000  -3.3639  -3.2451  -3.1470  -3.0114
    -2.9064  -2.8896  -2.6992  -2.3610  -2.2668  -2.1325  -1.6805  -1.3609
    -1.2732  -0.9327  -0.8616  -0.8053  -0.7502  -0.6895  -0.6643  -0.6080
    -0.3973  -0.3007  -0.2194  -0.0254   0.0265   0.0485   0.1269   0.2057
     0.3011   0.4086   0.4728   0.6739   0.7663   0.8106   0.8876   0.9620
     1.0513   1.0993   1.1693   1.2163   1.2956   1.3831   1.4601   1.5530
     1.5704   1.6604   1.7437   1.7896   1.8679   1.9087   1.9609   2.0049
     2.0563   2.1728   2.2942   2.3530

          k = 0.0714-0.0714-0.5000 ( 87318 PWs)   bands (ev):

    -8.5906  -7.8250  -7.7378  -7.7103  -7.1868  -7.0548  -6.9550  -6.7397
    -6.6816  -6.4856  -6.2427  -6.2211  -5.9677  -5.8541  -5.7840  -5.6057
    -5.4915  -5.3919  -4.7947  -4.6416  -4.5931  -4.4833  -4.4828  -4.4217
    -4.4006  -3.8799  -3.6521  -3.5857  -3.4309  -3.4081  -3.2413  -3.0615
    -3.0157  -2.8305  -2.5346  -2.3566  -2.1175  -2.0062  -1.6638  -1.4193
    -1.2372  -0.9275  -0.8348  -0.7980  -0.7099  -0.6674  -0.6546  -0.5770
    -0.4997  -0.3616  -0.2120  -0.0213   0.0291   0.0306   0.1030   0.2212
     0.2213   0.3182   0.4433   0.5445   0.6893   0.7126   0.8603   0.9575
     0.9666   1.0759   1.2072   1.2999   1.3317   1.4027   1.5033   1.5723
     1.6619   1.6768   1.7374   1.9109   1.9264   1.9479   1.9838   2.1282
     2.1814   2.1967   2.2680   2.2992

          k =-0.5000-0.0714 0.0714 ( 87318 PWs)   bands (ev):

    -8.5877  -7.8400  -7.7193  -7.7180  -7.1613  -7.1410  -6.9279  -6.6762
    -6.6142  -6.5288  -6.2918  -6.2839  -6.0508  -5.7978  -5.7531  -5.4844
    -5.4706  -5.1495  -5.0058  -4.7628  -4.6789  -4.6402  -4.5556  -4.4657
    -4.2602  -3.8412  -3.6159  -3.5979  -3.3475  -3.2343  -3.1649  -2.9826
    -2.8770  -2.8283  -2.6845  -2.3613  -2.3000  -2.1497  -1.7447  -1.3258
    -1.3068  -0.9391  -0.8802  -0.7965  -0.7643  -0.6882  -0.6662  -0.6148
    -0.3908  -0.2731  -0.2066  -0.0588   0.0280   0.0594   0.1245   0.2173
     0.3278   0.3605   0.4470   0.6816   0.7561   0.8103   0.9042   0.9777
     1.0952   1.1056   1.2028   1.2669   1.3444   1.3754   1.4150   1.5223
     1.5992   1.6554   1.7348   1.8099   1.8576   1.9231   1.9651   2.0260
     2.1449   2.2196   2.2680   2.3884

          k = 0.2143-0.0714 0.2143 ( 87335 PWs)   bands (ev):

    -8.5961  -7.7746  -7.7642  -7.7258  -7.1550  -7.0929  -6.9358  -6.7059
    -6.6401  -6.5644  -6.2801  -6.2606  -6.0140  -5.8153  -5.7817  -5.5741
    -5.4820  -5.2607  -4.8269  -4.7183  -4.6435  -4.5238  -4.4998  -4.4589
    -4.3205  -3.8624  -3.6615  -3.5980  -3.3592  -3.2947  -3.1225  -3.0987
    -3.0054  -2.8694  -2.7048  -2.3359  -2.1721  -2.0637  -1.5704  -1.4602
    -1.2669  -0.8944  -0.8548  -0.8010  -0.7525  -0.6838  -0.6223  -0.5438
    -0.4950  -0.3536  -0.2034   0.0034   0.0204   0.0479   0.0738   0.1713
     0.2894   0.4391   0.5493   0.6549   0.7661   0.7982   0.8910   0.9332
     0.9818   1.0349   1.1207   1.1811   1.2608   1.3023   1.4893   1.5148
     1.5909   1.6614   1.7281   1.7750   1.8228   1.9190   1.9994   2.0540
     2.1097   2.1999   2.2789   2.3257

          k = 0.2143-0.2143 0.0714 ( 87335 PWs)   bands (ev):

    -8.5953  -7.7789  -7.7613  -7.7252  -7.1368  -7.1313  -6.9297  -6.6520
    -6.6161  -6.6153  -6.2885  -6.2814  -6.0390  -5.7834  -5.7627  -5.5825
    -5.4661  -5.1832  -4.8334  -4.7927  -4.6771  -4.5473  -4.5279  -4.4826
    -4.2912  -3.8580  -3.6849  -3.5954  -3.2799  -3.1815  -3.1403  -3.0624
    -3.0076  -2.8622  -2.8049  -2.3467  -2.1635  -2.0957  -1.6200  -1.3914
    -1.3289  -0.8883  -0.8561  -0.7942  -0.7597  -0.7021  -0.6014  -0.5628
    -0.4727  -0.3528  -0.1493  -0.0165  -0.0047   0.0519   0.0749   0.1718
     0.3328   0.4349   0.5586   0.6084   0.7580   0.8941   0.9069   0.9661
     1.0073   1.0125   1.0873   1.1884   1.2440   1.3064   1.4657   1.5356
     1.6097   1.6616   1.6747   1.7010   1.7827   1.9116   1.9469   2.0668
     2.1115   2.2428   2.3573   2.3701

          k =-0.2143-0.2143-0.0714 ( 87335 PWs)   bands (ev):

    -8.5953  -7.7755  -7.7647  -7.7250  -7.1591  -7.1077  -6.9283  -6.6582
    -6.6145  -6.6137  -6.3065  -6.2713  -6.0256  -5.7997  -5.7883  -5.5044
    -5.4772  -5.1777  -4.8542  -4.7820  -4.6638  -4.6010  -4.5939  -4.5047
    -4.2617  -3.7482  -3.6247  -3.5638  -3.4047  -3.1851  -3.1323  -3.0613
    -3.0048  -2.9027  -2.7094  -2.3727  -2.2331  -2.1316  -1.5854  -1.4355
    -1.2529  -0.9310  -0.8795  -0.7487  -0.7447  -0.6958  -0.6572  -0.5999
    -0.3641  -0.3015  -0.2285  -0.0182  -0.0035   0.0491   0.1870   0.1973
     0.2696   0.3894   0.5422   0.6573   0.7133   0.8029   0.8526   0.9194
     1.0353   1.0873   1.1561   1.2133   1.2929   1.3862   1.4254   1.5291
     1.6046   1.6935   1.7523   1.7689   1.8141   1.8734   1.9021   1.9852
     2.1035   2.1738   2.2676   2.3074

          k = 0.2143-0.0714 0.3571 ( 87302 PWs)   bands (ev):

    -8.5868  -7.8020  -7.7680  -7.7167  -7.1845  -7.0884  -6.9560  -6.7029
    -6.6379  -6.5085  -6.2565  -6.2296  -5.9867  -5.8238  -5.7799  -5.5760
    -5.4926  -5.3364  -4.8296  -4.7179  -4.6380  -4.5211  -4.4915  -4.4511
    -4.3544  -3.8930  -3.6444  -3.5935  -3.4033  -3.3051  -3.1328  -3.0861
    -2.9873  -2.8344  -2.5899  -2.3758  -2.1685  -2.0577  -1.6139  -1.4849
    -1.2808  -0.9157  -0.8668  -0.8110  -0.7375  -0.6596  -0.6219  -0.5436
    -0.4878  -0.3109  -0.2291   0.0050   0.0170   0.0526   0.0962   0.1603
     0.2784   0.3926   0.5141   0.6159   0.6835   0.8033   0.8866   0.9218
     1.0043   1.0637   1.1799   1.2352   1.2707   1.3753   1.4015   1.5314
     1.6402   1.7022   1.7550   1.8287   1.9241   1.9728   2.0164   2.0681
     2.1431   2.2288   2.2714   2.3141

          k = 0.3571-0.2143 0.0714 ( 87302 PWs)   bands (ev):

    -8.5849  -7.8136  -7.7579  -7.7162  -7.1708  -7.1472  -6.9385  -6.6236
    -6.6123  -6.5484  -6.2925  -6.2782  -6.0407  -5.7625  -5.7447  -5.5509
    -5.4545  -5.1529  -4.9366  -4.8183  -4.7162  -4.6085  -4.5389  -4.5147
    -4.2910  -3.8267  -3.6615  -3.5849  -3.2790  -3.1759  -3.1276  -2.9979
    -2.9279  -2.8416  -2.7681  -2.3746  -2.2130  -2.1446  -1.6922  -1.4027
    -1.3496  -0.9292  -0.8552  -0.7979  -0.7622  -0.6794  -0.6330  -0.5730
    -0.3958  -0.2893  -0.1304  -0.0366  -0.0046   0.0427   0.1038   0.2087
     0.3334   0.3879   0.5042   0.5710   0.7051   0.8512   0.9080   0.9519
     1.0144   1.0623   1.1709   1.2427   1.3325   1.3632   1.4663   1.5156
     1.5720   1.6782   1.6964   1.7778   1.8280   1.8925   1.9658   2.1325
     2.1437   2.2624   2.3332   2.3567

          k =-0.3571-0.2143-0.0714 ( 87302 PWs)   bands (ev):

    -8.5849  -7.8130  -7.7586  -7.7159  -7.1834  -7.1335  -6.9381  -6.6236
    -6.6134  -6.5491  -6.3061  -6.2703  -6.0311  -5.7898  -5.7494  -5.4776
    -5.4717  -5.1498  -4.9422  -4.8192  -4.7184  -4.6443  -4.5896  -4.5261
    -4.2684  -3.7380  -3.6100  -3.5831  -3.3680  -3.1670  -3.1183  -3.0173
    -2.9111  -2.8747  -2.6858  -2.3978  -2.2709  -2.1807  -1.6736  -1.4439
    -1.2703  -0.9314  -0.8994  -0.7779  -0.7428  -0.6781  -0.6641  -0.5929
    -0.3138  -0.2365  -0.2027  -0.0399   0.0040   0.0460   0.1254   0.1991
     0.3353   0.3648   0.4601   0.6596   0.7173   0.7440   0.8510   0.9782
     1.0496   1.0881   1.1983   1.2197   1.3405   1.3756   1.4840   1.5968
     1.6201   1.6726   1.7608   1.7897   1.8476   1.9099   1.9512   2.0115
     2.0985   2.1164   2.2026   2.3718

          k =-0.0714 0.3571 0.2143 ( 87302 PWs)   bands (ev):

    -8.5855  -7.8164  -7.7551  -7.7169  -7.1719  -7.1273  -6.9437  -6.6804
    -6.5742  -6.5558  -6.2776  -6.2608  -6.0242  -5.7838  -5.7781  -5.5348
    -5.4709  -5.2288  -4.9386  -4.7549  -4.6855  -4.5823  -4.5305  -4.4575
    -4.2963  -3.8785  -3.6291  -3.5844  -3.3633  -3.2539  -3.1366  -2.9932
    -2.9144  -2.8496  -2.6679  -2.3541  -2.2703  -2.1165  -1.6747  -1.4295
    -1.3097  -0.9288  -0.8743  -0.8023  -0.7621  -0.6788  -0.6335  -0.5477
    -0.4164  -0.3135  -0.2022  -0.0368   0.0111   0.0348   0.1274   0.1875
     0.3275   0.4292   0.5372   0.6320   0.7460   0.8369   0.8949   0.9344
     1.0315   1.1137   1.1541   1.2180   1.2778   1.3275   1.4892   1.5206
     1.5826   1.6299   1.6865   1.7807   1.9109   1.9606   2.0448   2.0634
     2.1217   2.2017   2.3046   2.3574

          k =-0.0714-0.3571-0.2143 ( 87302 PWs)   bands (ev):

    -8.5855  -7.8162  -7.7550  -7.7172  -7.1766  -7.1218  -6.9437  -6.6814
    -6.5748  -6.5551  -6.2826  -6.2587  -6.0190  -5.7987  -5.7754  -5.5097
    -5.4750  -5.2268  -4.9411  -4.7597  -4.6798  -4.6066  -4.5410  -4.4701
    -4.2880  -3.8388  -3.6008  -3.5849  -3.3928  -3.2540  -3.1355  -3.0079
    -2.9061  -2.8582  -2.6271  -2.3742  -2.2976  -2.1279  -1.6718  -1.4183
    -1.3075  -0.9362  -0.8565  -0.8146  -0.7656  -0.6761  -0.6337  -0.5582
    -0.3996  -0.2791  -0.2371  -0.0417   0.0028   0.0478   0.1631   0.1890
     0.3248   0.4070   0.5066   0.6801   0.7406   0.8189   0.8308   0.9623
     1.0380   1.1086   1.1770   1.2337   1.2919   1.3566   1.4322   1.5502
     1.6111   1.6622   1.7240   1.8106   1.8696   1.9063   2.0134   2.0498
     2.1114   2.2172   2.2538   2.3248

          k = 0.2143-0.0714-0.5000 ( 87322 PWs)   bands (ev):

    -8.5825  -7.8182  -7.7651  -7.7124  -7.1974  -7.0867  -6.9647  -6.7015
    -6.6370  -6.4876  -6.2384  -6.2160  -5.9750  -5.8276  -5.7790  -5.5773
    -5.4988  -5.3730  -4.8308  -4.7175  -4.6360  -4.5188  -4.4885  -4.4472
    -4.3670  -3.9067  -3.6400  -3.5905  -3.4222  -3.3086  -3.1369  -3.0810
    -2.9778  -2.8194  -2.5372  -2.3920  -2.1672  -2.0560  -1.6566  -1.4750
    -1.2843  -0.9264  -0.8715  -0.8150  -0.7321  -0.6665  -0.6030  -0.5556
    -0.4737  -0.3023  -0.2448   0.0194   0.0315   0.0508   0.1133   0.1459
     0.2681   0.3736   0.4924   0.5752   0.6623   0.8149   0.8877   0.9234
     1.0179   1.0780   1.2263   1.2418   1.2697   1.3168   1.4761   1.5465
     1.6556   1.6962   1.7460   1.8651   1.9241   1.9877   2.0264   2.1370
     2.1891   2.2110   2.2830   2.3051

          k =-0.5000-0.2143 0.0714 ( 87322 PWs)   bands (ev):

    -8.5800  -7.8310  -7.7535  -7.7118  -7.1912  -7.1489  -6.9413  -6.6214
    -6.6066  -6.5120  -6.2996  -6.2752  -6.0390  -5.7751  -5.7277  -5.4972
    -5.4586  -5.1369  -4.9995  -4.8215  -4.7280  -4.6616  -4.5703  -4.5229
    -4.2819  -3.7714  -3.6303  -3.5838  -3.3139  -3.1899  -3.1063  -3.0057
    -2.8546  -2.8390  -2.7129  -2.3807  -2.2739  -2.1872  -1.7372  -1.4286
    -1.2981  -0.9473  -0.8727  -0.8016  -0.7591  -0.6755  -0.6459  -0.5888
    -0.3380  -0.2115  -0.1542  -0.0533  -0.0102   0.0468   0.1172   0.2244
     0.3234   0.3775   0.4440   0.6128   0.6788   0.7720   0.9011   0.9623
     1.0480   1.0849   1.2137   1.2728   1.3350   1.4139   1.4490   1.5455
     1.5970   1.6661   1.7260   1.8391   1.8729   1.9179   1.9357   2.0702
     2.1530   2.2194   2.2438   2.3550

          k =-0.0714-0.5000 0.2143 ( 87322 PWs)   bands (ev):

    -8.5805  -7.8344  -7.7508  -7.7125  -7.1823  -7.1395  -6.9463  -6.6724
    -6.5682  -6.5251  -6.2774  -6.2627  -6.0279  -5.7895  -5.7590  -5.4918
    -5.4784  -5.2131  -5.0010  -4.7656  -4.6911  -4.6349  -4.5459  -4.4556
    -4.2845  -3.8683  -3.6079  -3.5716  -3.3759  -3.2424  -3.1527  -2.9700
    -2.8501  -2.8293  -2.6211  -2.3725  -2.3344  -2.1478  -1.7362  -1.4043
    -1.3192  -0.9487  -0.8848  -0.7984  -0.7701  -0.6941  -0.6239  -0.5528
    -0.3781  -0.2583  -0.2202  -0.0817  -0.0102   0.0502   0.1725   0.2120
     0.3522   0.3983   0.4711   0.6988   0.7393   0.8076   0.8750   0.9444
     1.0862   1.1424   1.2011   1.2419   1.2902   1.3648   1.4207   1.5060
     1.6143   1.6221   1.7217   1.8030   1.8748   1.9487   2.0202   2.0912
     2.1477   2.2127   2.2971   2.3348

          k = 0.3571-0.0714 0.3571 ( 87268 PWs)   bands (ev):

    -8.5761  -7.8093  -7.7930  -7.7084  -7.2010  -7.1229  -6.9650  -6.6766
    -6.5669  -6.5070  -6.2525  -6.2293  -5.9972  -5.7866  -5.7743  -5.5379
    -5.4857  -5.3124  -4.9349  -4.7583  -4.6895  -4.5816  -4.5214  -4.4439
    -4.3219  -3.9104  -3.6229  -3.5626  -3.4002  -3.2626  -3.1208  -2.9825
    -2.9135  -2.8172  -2.5718  -2.4039  -2.2694  -2.1159  -1.6674  -1.5244
    -1.3070  -0.9435  -0.8915  -0.8141  -0.7514  -0.6894  -0.5785  -0.4927
    -0.4475  -0.2824  -0.2127  -0.0373   0.0062   0.0367   0.1249   0.1974
     0.3539   0.4267   0.5562   0.6312   0.7059   0.7988   0.8559   0.9434
     1.0366   1.1169   1.1730   1.2408   1.2762   1.3510   1.4334   1.5175
     1.5797   1.6514   1.6862   1.8484   1.9024   2.0099   2.0531   2.1004
     2.1426   2.2154   2.2765   2.3446

          k = 0.3571-0.3571 0.0714 ( 87268 PWs)   bands (ev):

    -8.5747  -7.8085  -7.7924  -7.7074  -7.2097  -7.1565  -6.9504  -6.6195
    -6.5432  -6.5233  -6.3002  -6.2717  -6.0355  -5.7345  -5.7108  -5.5404
    -5.4483  -5.1320  -4.9350  -4.9296  -4.7627  -4.6451  -4.5933  -4.5155
    -4.3141  -3.7571  -3.6546  -3.5747  -3.2453  -3.1921  -3.0775  -2.9707
    -2.8962  -2.8027  -2.7733  -2.4127  -2.2055  -2.1992  -1.7153  -1.5117
    -1.3178  -0.9586  -0.8269  -0.7886  -0.7496  -0.6736  -0.6479  -0.5680
    -0.3435  -0.2260  -0.1048  -0.0361  -0.0186   0.1026   0.1186   0.2171
     0.3450   0.3535   0.4181   0.5446   0.7106   0.7614   0.8849   0.8881
     1.0011   1.0750   1.2067   1.2719   1.3580   1.3944   1.4558   1.5232
     1.6331   1.6708   1.7337   1.7770   1.8026   1.9409   2.0253   2.0608
     2.1582   2.2246   2.2783   2.3687

          k =-0.3571-0.3571-0.0714 ( 87268 PWs)   bands (ev):

    -8.5747  -7.8064  -7.7946  -7.7072  -7.2155  -7.1499  -6.9506  -6.6180
    -6.5467  -6.5223  -6.3097  -6.2663  -6.0287  -5.7582  -5.7173  -5.4731
    -5.4627  -5.1309  -4.9471  -4.9204  -4.7751  -4.6664  -4.6104  -4.5491
    -4.2907  -3.6856  -3.6130  -3.5758  -3.3253  -3.2036  -3.0461  -2.9689
    -2.8930  -2.8474  -2.7046  -2.3967  -2.2725  -2.2350  -1.6943  -1.5414
    -1.2628  -0.9525  -0.8650  -0.7710  -0.7313  -0.6827  -0.6723  -0.5771
    -0.2733  -0.2027  -0.1125  -0.0523  -0.0095   0.0607   0.1154   0.2071
     0.3365   0.3428   0.4541   0.5853   0.6762   0.7168   0.7947   1.0249
     1.0679   1.0789   1.1773   1.2233   1.3281   1.3946   1.4814   1.5925
     1.6332   1.6858   1.7853   1.7991   1.8808   1.9574   1.9590   2.0477
     2.0534   2.1447   2.1466   2.3731

          k = 0.3571-0.0714-0.5000 ( 87328 PWs)   bands (ev):

    -8.5718  -7.8093  -7.8061  -7.7044  -7.2138  -7.1212  -6.9742  -6.6749
    -6.5662  -6.4869  -6.2337  -6.2154  -5.9857  -5.7900  -5.7697  -5.5389
    -5.4943  -5.3530  -4.9331  -4.7598  -4.6916  -4.5804  -4.5177  -4.4374
    -4.3313  -3.9247  -3.6222  -3.5530  -3.4157  -3.2659  -3.1140  -2.9761
    -2.9132  -2.8032  -2.5268  -2.4264  -2.2681  -2.1162  -1.6729  -1.5603
    -1.3026  -0.9517  -0.8974  -0.8165  -0.7513  -0.6941  -0.5545  -0.4781
    -0.4483  -0.2929  -0.2161  -0.0086   0.0072   0.0397   0.1218   0.2006
     0.3618   0.4162   0.5709   0.6146   0.6651   0.7947   0.8590   0.9405
     1.0474   1.1202   1.1864   1.2298   1.2878   1.3805   1.4412   1.4980
     1.5713   1.6309   1.6808   1.8982   1.9064   2.0059   2.0560   2.1090
     2.1742   2.2193   2.2565   2.3069

          k =-0.5000-0.3571 0.0714 ( 87328 PWs)   bands (ev):

    -8.5700  -7.8200  -7.7930  -7.7033  -7.2282  -7.1595  -6.9549  -6.6196
    -6.5291  -6.4929  -6.3063  -6.2689  -6.0324  -5.7359  -5.6951  -5.4966
    -5.4549  -5.1212  -4.9903  -4.9301  -4.7841  -4.6917  -4.6069  -4.5293
    -4.3128  -3.6904  -3.6356  -3.5749  -3.2537  -3.2241  -3.0677  -2.9596
    -2.8422  -2.8148  -2.7386  -2.4056  -2.2455  -2.2398  -1.7373  -1.5539
    -1.2761  -0.9730  -0.8110  -0.7897  -0.7356  -0.6794  -0.6623  -0.5850
    -0.2905  -0.1540  -0.1300  -0.0343  -0.0221   0.1021   0.1336   0.2198
     0.3191   0.3432   0.4290   0.5396   0.6568   0.7303   0.8193   0.9472
     1.0380   1.1041   1.1983   1.2580   1.3223   1.3853   1.4502   1.5756
     1.6550   1.6908   1.7501   1.7940   1.8651   1.9495   2.0050   2.0680
     2.1155   2.1686   2.2144   2.3426

          k =-0.0714-0.5000 0.3571 ( 87328 PWs)   bands (ev):

    -8.5712  -7.8273  -7.7888  -7.7041  -7.2105  -7.1357  -6.9683  -6.6681
    -6.5389  -6.4994  -6.2511  -6.2317  -6.0009  -5.7774  -5.7656  -5.5037
    -5.4882  -5.3008  -4.9945  -4.7691  -4.7051  -4.6282  -4.5348  -4.4422
    -4.3068  -3.9024  -3.6075  -3.5381  -3.4087  -3.2506  -3.1377  -2.9467
    -2.8451  -2.8083  -2.5401  -2.4035  -2.3575  -2.1461  -1.7242  -1.5175
    -1.3102  -0.9632  -0.8906  -0.8144  -0.7605  -0.7046  -0.5644  -0.4842
    -0.4052  -0.2858  -0.1523  -0.1135  -0.0168   0.0461   0.1490   0.2599
     0.3846   0.4375   0.4792   0.6872   0.7386   0.7863   0.8509   0.9349
     1.0681   1.1080   1.1992   1.2604   1.3118   1.3655   1.4038   1.4885
     1.5601   1.6219   1.7333   1.8017   1.9061   1.9474   2.0869   2.1181
     2.1450   2.2092   2.2694   2.3132

          k =-0.5000 0.5000 0.0714 ( 87220 PWs)   bands (ev):

    -8.5653  -7.8192  -7.8054  -7.6993  -7.2445  -7.1648  -6.9598  -6.6205
    -6.4962  -6.4802  -6.3077  -6.2686  -6.0318  -5.7182  -5.6769  -5.4779
    -5.4701  -5.1133  -4.9898  -4.9795  -4.8003  -4.7267  -4.6219  -4.5136
    -4.3291  -3.6513  -3.6395  -3.5720  -3.2492  -3.1927  -3.1207  -2.9212
    -2.8139  -2.7862  -2.7628  -2.4048  -2.2793  -2.2288  -1.7518  -1.5978
    -1.2623  -0.9892  -0.7932  -0.7405  -0.7256  -0.6832  -0.6656  -0.6299
    -0.2530  -0.1532  -0.1237  -0.0286  -0.0196   0.1406   0.1518   0.2151
     0.3006   0.3470   0.4641   0.4759   0.6073   0.7181   0.8607   0.8854
     1.0723   1.0798   1.2021   1.2566   1.2874   1.3527   1.4567   1.6190
     1.6258   1.7527   1.7653   1.8090   1.8157   1.9502   2.0219   2.0764
     2.1323   2.1431   2.1652   2.3854

          k = 0.2143-0.2143 0.2143 ( 87275 PWs)   bands (ev):

    -8.5881  -7.7749  -7.7575  -7.7534  -7.1611  -7.1275  -6.9463  -6.6496
    -6.6134  -6.5669  -6.2797  -6.2542  -6.0147  -5.7895  -5.7643  -5.5805
    -5.4760  -5.2402  -4.8355  -4.7911  -4.6756  -4.5460  -4.5205  -4.4799
    -4.3210  -3.8793  -3.6697  -3.5889  -3.3210  -3.1873  -3.1252  -3.0713
    -2.9895  -2.8403  -2.7232  -2.3805  -2.1592  -2.0972  -1.5981  -1.4643
    -1.3397  -0.8882  -0.8845  -0.8146  -0.7459  -0.6638  -0.5861  -0.5629
    -0.4806  -0.2881  -0.1799  -0.0524  -0.0085   0.0643   0.1017   0.1705
     0.3208   0.4397   0.5523   0.6350   0.7234   0.8377   0.9355   0.9544
     0.9981   1.0019   1.1160   1.2045   1.2175   1.2968   1.4853   1.5302
     1.6549   1.6936   1.6990   1.7781   1.8018   1.9251   1.9590   2.0226
     2.1188   2.2956   2.3285   2.3600

          k = 0.2143-0.2143 0.3571 ( 87299 PWs)   bands (ev):

    -8.5788  -7.7954  -7.7697  -7.7430  -7.1908  -7.1238  -6.9662  -6.6468
    -6.6110  -6.5124  -6.2550  -6.2210  -5.9853  -5.7971  -5.7663  -5.5756
    -5.4919  -5.3205  -4.8385  -4.7884  -4.6750  -4.5406  -4.5116  -4.4789
    -4.3481  -3.9059  -3.6610  -3.5777  -3.3653  -3.1910  -3.1107  -3.0832
    -2.9638  -2.8136  -2.6175  -2.4239  -2.1553  -2.1007  -1.6139  -1.5088
    -1.3507  -0.9171  -0.8879  -0.8365  -0.7315  -0.6206  -0.5971  -0.5643
    -0.4565  -0.2479  -0.2243  -0.0452  -0.0065   0.0889   0.1429   0.1568
     0.3012   0.4210   0.5406   0.6359   0.6721   0.7957   0.9230   0.9642
     1.0141   1.0263   1.1766   1.1918   1.2882   1.2904   1.3720   1.5146
     1.6679   1.7380   1.7813   1.7918   1.8598   1.9762   2.0158   2.0199
     2.1103   2.2408   2.3122   2.3769

          k = 0.3571-0.2143 0.2143 ( 87299 PWs)   bands (ev):

    -8.5777  -7.8084  -7.7516  -7.7482  -7.1776  -7.1611  -6.9559  -6.6161
    -6.5695  -6.5458  -6.2823  -6.2504  -6.0146  -5.7624  -5.7503  -5.5519
    -5.4652  -5.2145  -4.9339  -4.8188  -4.7203  -4.6048  -4.5377  -4.5079
    -4.3157  -3.8478  -3.6483  -3.5733  -3.3111  -3.1631  -3.1308  -2.9777
    -2.9294  -2.8186  -2.7090  -2.4126  -2.2125  -2.1496  -1.6706  -1.4375
    -1.4013  -0.9318  -0.8780  -0.8121  -0.7501  -0.6548  -0.5960  -0.5519
    -0.4191  -0.2223  -0.1640  -0.0874  -0.0119   0.0691   0.1364   0.2011
     0.3422   0.4368   0.5333   0.5741   0.7088   0.8431   0.8879   0.9471
     0.9958   1.0679   1.1637   1.2330   1.2602   1.3447   1.4688   1.5165
     1.6102   1.6931   1.7114   1.7770   1.8737   1.8962   1.9788   2.0695
     2.1191   2.2419   2.3127   2.3640

          k =-0.3571-0.2143-0.2143 ( 87299 PWs)   bands (ev):

    -8.5777  -7.8076  -7.7524  -7.7481  -7.1932  -7.1439  -6.9564  -6.6183
    -6.5684  -6.5458  -6.2910  -6.2480  -6.0033  -5.7894  -5.7551  -5.4852
    -5.4783  -5.2109  -4.9398  -4.8178  -4.7257  -4.6418  -4.5842  -4.5209
    -4.2933  -3.7654  -3.5910  -3.5675  -3.3902  -3.1596  -3.1231  -3.0052
    -2.9160  -2.8404  -2.6304  -2.4093  -2.3059  -2.1777  -1.6559  -1.4610
    -1.3547  -0.9331  -0.8701  -0.7942  -0.7641  -0.6686  -0.6093  -0.5620
    -0.3408  -0.2715  -0.1588  -0.0562  -0.0241   0.0592   0.1738   0.2141
     0.3462   0.3672   0.5080   0.6465   0.7235   0.7668   0.8195   0.9930
     1.0268   1.0810   1.1686   1.2298   1.3077   1.3538   1.4959   1.5849
     1.6179   1.6887   1.7298   1.7888   1.8634   1.8964   1.9649   2.0574
     2.1022   2.1459   2.1829   2.3165

          k = 0.2143-0.2143-0.5000 ( 87344 PWs)   bands (ev):

    -8.5745  -7.8116  -7.7674  -7.7381  -7.2038  -7.1224  -6.9748  -6.6455
    -6.6099  -6.4923  -6.2363  -6.2065  -5.9726  -5.8005  -5.7674  -5.5718
    -5.5019  -5.3595  -4.8399  -4.7870  -4.6751  -4.5367  -4.5078  -4.4794
    -4.3575  -3.9177  -3.6595  -3.5722  -3.3837  -3.1918  -3.1018  -3.0918
    -2.9509  -2.8017  -2.5704  -2.4403  -2.1540  -2.1035  -1.6510  -1.4986
    -1.3547  -0.9317  -0.8878  -0.8467  -0.7258  -0.6097  -0.5997  -0.5668
    -0.4333  -0.2541  -0.2511  -0.0034  -0.0018   0.1049   0.1364   0.1671
     0.2880   0.4105   0.5310   0.6061   0.6470   0.8017   0.9126   0.9719
     1.0186   1.0653   1.1605   1.2260   1.2808   1.2929   1.3978   1.5063
     1.6193   1.7586   1.7805   1.7958   1.8591   2.0046   2.0551   2.0820
     2.1309   2.1955   2.3111   2.3586

          k =-0.5000-0.2143 0.2143 ( 87344 PWs)   bands (ev):

    -8.5728  -7.8255  -7.7476  -7.7437  -7.1968  -7.1636  -6.9596  -6.6084
    -6.5688  -6.5100  -6.2864  -6.2498  -6.0117  -5.7729  -5.7333  -5.5039
    -5.4670  -5.2011  -4.9945  -4.8217  -4.7379  -4.6555  -4.5673  -4.5161
    -4.3053  -3.7960  -3.6171  -3.5653  -3.3383  -3.1788  -3.1135  -2.9800
    -2.8521  -2.8183  -2.6670  -2.4124  -2.2861  -2.1888  -1.7205  -1.4340
    -1.3864  -0.9520  -0.8702  -0.8025  -0.7659  -0.6705  -0.5867  -0.5612
    -0.3603  -0.2167  -0.1259  -0.0806  -0.0397   0.0536   0.1657   0.2332
     0.3384   0.4277   0.4778   0.6066   0.6970   0.7881   0.8715   0.9662
     1.0161   1.0885   1.1941   1.2482   1.3061   1.4023   1.4446   1.5140
     1.5968   1.6651   1.7208   1.8177   1.8768   1.9159   1.9809   2.0553
     2.1355   2.2055   2.2493   2.3013

          k = 0.3571-0.2143 0.3571 ( 87285 PWs)   bands (ev):

    -8.5683  -7.8018  -7.7866  -7.7424  -7.2043  -7.1600  -6.9770  -6.6125
    -6.5478  -6.5133  -6.2554  -6.2161  -5.9827  -5.7628  -5.7564  -5.5516
    -5.4815  -5.3008  -4.9301  -4.8194  -4.7263  -4.5993  -4.5340  -4.5017
    -4.3372  -3.8745  -3.6424  -3.5560  -3.3474  -3.1493  -3.1323  -2.9601
    -2.9241  -2.7936  -2.6245  -2.4621  -2.2125  -2.1561  -1.6486  -1.5346
    -1.3995  -0.9399  -0.9026  -0.8293  -0.7359  -0.6433  -0.5489  -0.5173
    -0.4363  -0.2348  -0.1789  -0.0747  -0.0058   0.1080   0.1442   0.2169
     0.3504   0.4436   0.5729   0.5911   0.7102   0.8226   0.8806   0.9203
     1.0036   1.0443   1.1857   1.2184   1.2624   1.3264   1.3937   1.5167
     1.6180   1.6619   1.7187   1.8296   1.8714   1.9312   2.0134   2.0547
     2.1217   2.2108   2.2737   2.3654

          k = 0.3571-0.3571 0.2143 ( 87285 PWs)   bands (ev):

    -8.5675  -7.8044  -7.7847  -7.7399  -7.2064  -7.1809  -6.9685  -6.5718
    -6.5408  -6.5216  -6.2887  -6.2420  -6.0057  -5.7378  -5.7162  -5.5428
    -5.4593  -5.1960  -4.9328  -4.9259  -4.7697  -4.6384  -4.5923  -4.5142
    -4.3370  -3.7764  -3.6432  -3.5639  -3.2668  -3.1868  -3.0581  -2.9482
    -2.9043  -2.7894  -2.7257  -2.4535  -2.2073  -2.2065  -1.6870  -1.5119
    -1.4128  -0.9576  -0.8585  -0.7972  -0.7352  -0.6326  -0.6018  -0.5512
    -0.3759  -0.1593  -0.1503  -0.1024  -0.0247   0.1533   0.1661   0.2065
     0.3573   0.3834   0.5005   0.5629   0.6926   0.7982   0.8603   0.9157
     0.9922   1.0478   1.1570   1.2711   1.3477   1.3573   1.3852   1.5224
     1.6649   1.7230   1.7444   1.7787   1.8144   1.8370   1.9392   2.0723
     2.1050   2.2186   2.2971   2.3221

          k =-0.3571-0.3571-0.2143 ( 87285 PWs)   bands (ev):

    -8.5675  -7.8023  -7.7869  -7.7397  -7.2167  -7.1693  -6.9691  -6.5702
    -6.5438  -6.5208  -6.2950  -6.2404  -5.9976  -5.7611  -5.7227  -5.4840
    -5.4676  -5.1942  -4.9454  -4.9151  -4.7826  -4.6653  -4.6065  -4.5458
    -4.3137  -3.7135  -3.5831  -3.5726  -3.3417  -3.1939  -3.0318  -2.9598
    -2.9018  -2.8179  -2.6666  -2.4263  -2.2908  -2.2347  -1.6672  -1.5483
    -1.3653  -0.9551  -0.8281  -0.7945  -0.7533  -0.6617  -0.6147  -0.5434
    -0.3034  -0.2510  -0.0952  -0.0725  -0.0224   0.0944   0.1656   0.2361
     0.3524   0.3696   0.5115   0.5760   0.6974   0.7362   0.8206   0.9868
     1.0363   1.0825   1.1687   1.1957   1.2942   1.3966   1.4756   1.5851
     1.5952   1.6721   1.7730   1.7932   1.8513   1.8919   1.9521   2.0554
     2.1003   2.1327   2.1592   2.3277

          k = 0.3571-0.2143-0.5000 ( 87232 PWs)   bands (ev):

    -8.5640  -7.8029  -7.7987  -7.7383  -7.2170  -7.1589  -6.9860  -6.6109
    -6.5466  -6.4945  -6.2357  -6.2010  -5.9689  -5.7640  -5.7579  -5.5501
    -5.4911  -5.3430  -4.9283  -4.8196  -4.7292  -4.5965  -4.5318  -4.4995
    -4.3443  -3.8864  -3.6417  -3.5484  -3.3628  -3.1428  -3.1331  -2.9568
    -2.9162  -2.7828  -2.5865  -2.4816  -2.2123  -2.1596  -1.6507  -1.5673
    -1.3964  -0.9471  -0.9106  -0.8368  -0.7309  -0.6428  -0.5235  -0.5113
    -0.4282  -0.2642  -0.2005  -0.0406   0.0064   0.1333   0.1505   0.2180
     0.3572   0.4326   0.5822   0.5979   0.7076   0.8174   0.8804   0.9065
     0.9859   1.0423   1.1979   1.2323   1.2969   1.3429   1.3552   1.5091
     1.5581   1.6342   1.6998   1.8759   1.8812   1.9707   2.0252   2.0406
     2.1509   2.1985   2.2461   2.3579

          k =-0.5000-0.3571 0.2143 ( 87232 PWs)   bands (ev):

    -8.5628  -7.8151  -7.7861  -7.7358  -7.2261  -7.1825  -6.9734  -6.5724
    -6.5266  -6.4913  -6.2931  -6.2398  -6.0009  -5.7392  -5.7002  -5.5044
    -5.4636  -5.1866  -4.9854  -4.9266  -4.7933  -4.6860  -4.6043  -4.5283
    -4.3351  -3.7152  -3.6174  -3.5654  -3.2720  -3.2140  -3.0418  -2.9485
    -2.8487  -2.7938  -2.7043  -2.4477  -2.2513  -2.2434  -1.7117  -1.5519
    -1.3805  -0.9726  -0.8325  -0.7755  -0.7427  -0.6526  -0.6064  -0.5526
    -0.3231  -0.1838  -0.1039  -0.0866  -0.0324   0.1327   0.1850   0.2367
     0.3510   0.3750   0.4958   0.5549   0.6819   0.7513   0.8377   0.9341
     1.0121   1.0745   1.1760   1.2560   1.2897   1.3671   1.4568   1.5007
     1.6426   1.6920   1.7617   1.7919   1.8161   1.8666   1.9660   2.0712
     2.1201   2.1638   2.2179   2.2904

          k =-0.2143-0.5000 0.3571 ( 87232 PWs)   bands (ev):

    -8.5635  -7.8186  -7.7824  -7.7385  -7.2169  -7.1688  -6.9816  -6.6041
    -6.5263  -6.4997  -6.2574  -6.2166  -5.9785  -5.7690  -5.7403  -5.5138
    -5.4782  -5.2902  -4.9879  -4.8222  -4.7501  -4.6485  -4.5621  -4.5085
    -4.3256  -3.8264  -3.6118  -3.5402  -3.3681  -3.1635  -3.1208  -2.9432
    -2.8615  -2.7871  -2.6044  -2.4575  -2.2927  -2.1909  -1.6989  -1.5174
    -1.4092  -0.9608  -0.8781  -0.8188  -0.7550  -0.6658  -0.5255  -0.5086
    -0.3905  -0.2715  -0.1384  -0.0652  -0.0040   0.0754   0.1704   0.2700
     0.3682   0.4397   0.5265   0.6318   0.7188   0.8035   0.8490   0.9301
     1.0085   1.0739   1.1763   1.2139   1.3068   1.3368   1.4588   1.5054
     1.5735   1.6167   1.7162   1.8087   1.8649   1.9372   2.0170   2.0537
     2.1434   2.1819   2.2686   2.2858

          k =-0.5000 0.5000 0.2143 ( 87228 PWs)   bands (ev):

    -8.5581  -7.8151  -7.7977  -7.7319  -7.2411  -7.1892  -6.9786  -6.5740
    -6.4937  -6.4787  -6.2948  -6.2376  -5.9989  -5.7230  -5.6815  -5.4919
    -5.4740  -5.1797  -4.9859  -4.9736  -4.8109  -4.7193  -4.6190  -4.5143
    -4.3510  -3.6802  -3.6145  -3.5683  -3.2379  -3.2186  -3.0765  -2.9118
    -2.8226  -2.7727  -2.7265  -2.4524  -2.2813  -2.2334  -1.7245  -1.5938
    -1.3725  -0.9873  -0.8234  -0.7315  -0.7261  -0.6590  -0.6118  -0.5756
    -0.2866  -0.1773  -0.1086  -0.0897  -0.0254   0.1566   0.1842   0.2472
     0.3585   0.3895   0.4927   0.5323   0.6901   0.7052   0.8475   0.9067
     1.0245   1.1042   1.1919   1.2047   1.2375   1.3561   1.4591   1.5279
     1.6053   1.7102   1.7749   1.7761   1.8207   1.8581   1.9721   2.0694
     2.0982   2.1728   2.1807   2.3173

          k = 0.3571-0.3571 0.3571 ( 87299 PWs)   bands (ev):

    -8.5581  -7.7993  -7.7780  -7.7745  -7.2105  -7.2027  -6.9901  -6.5393
    -6.5200  -6.5194  -6.2592  -6.2054  -5.9682  -5.7424  -5.7231  -5.5453
    -5.4749  -5.2855  -4.9300  -4.9207  -4.7792  -4.6309  -4.5895  -4.5134
    -4.3556  -3.8017  -3.6370  -3.5492  -3.2967  -3.1756  -3.0359  -2.9201
    -2.9158  -2.7718  -2.6535  -2.5074  -2.2174  -2.2079  -1.6514  -1.5224
    -1.5121  -0.9564  -0.8960  -0.8148  -0.7198  -0.6023  -0.5390  -0.5063
    -0.4160  -0.2075  -0.1734  -0.0828  -0.0218   0.1814   0.1989   0.2641
     0.3493   0.3920   0.6049   0.6568   0.6682   0.8072   0.8469   0.9494
     0.9708   1.0187   1.1105   1.2458   1.2746   1.3273   1.3691   1.5364
     1.5908   1.6759   1.6901   1.7913   1.8300   1.8480   1.9512   2.0543
     2.1121   2.2357   2.2441   2.3304

          k = 0.3571-0.3571-0.5000 ( 87226 PWs)   bands (ev):

    -8.5537  -7.7973  -7.7939  -7.7697  -7.2235  -7.2013  -6.9995  -6.5375
    -6.5185  -6.5026  -6.2381  -6.1891  -5.9513  -5.7447  -5.7262  -5.5459
    -5.4830  -5.3296  -4.9287  -4.9181  -4.7836  -4.6279  -4.5877  -4.5134
    -4.3611  -3.8132  -3.6360  -3.5427  -3.3104  -3.1697  -3.0264  -2.9215
    -2.9067  -2.7637  -2.6195  -2.5297  -2.2224  -2.2085  -1.6411  -1.5644
    -1.5122  -0.9560  -0.9126  -0.8239  -0.7144  -0.5925  -0.5026  -0.4817
    -0.4375  -0.2378  -0.2011  -0.0549  -0.0157   0.1796   0.2254   0.3041
     0.3377   0.3961   0.6360   0.6558   0.7495   0.8310   0.8464   0.8756
     0.9636   1.0081   1.0964   1.2601   1.2892   1.3070   1.3422   1.4873
     1.5522   1.6362   1.6467   1.8169   1.8481   1.9150   1.9703   2.0151
     2.1237   2.2097   2.2520   2.3214

          k =-0.5000-0.3571 0.3571 ( 87226 PWs)   bands (ev):

    -8.5533  -7.8091  -7.7770  -7.7737  -7.2286  -7.2057  -6.9957  -6.5272
    -6.5204  -6.4884  -6.2618  -6.2031  -5.9607  -5.7439  -5.7066  -5.5165
    -5.4739  -5.2776  -4.9790  -4.9220  -4.8053  -4.6797  -4.6006  -4.5269
    -4.3530  -3.7456  -3.6048  -3.5522  -3.2989  -3.2003  -3.0075  -2.9341
    -2.8597  -2.7683  -2.6464  -2.5051  -2.2576  -2.2458  -1.6780  -1.5506
    -1.4982  -0.9727  -0.8645  -0.7903  -0.7315  -0.6253  -0.5321  -0.4887
    -0.3732  -0.2411  -0.1530  -0.0652  -0.0205   0.1671   0.2204   0.2574
     0.3599   0.4460   0.6112   0.6247   0.6911   0.7848   0.8553   0.9132
     0.9841   1.0554   1.1149   1.2232   1.2849   1.3420   1.3865   1.4778
     1.5178   1.6371   1.7135   1.7784   1.8456   1.8615   1.9676   2.0787
     2.1196   2.1698   2.2249   2.2821

          k =-0.5000 0.5000 0.3571 ( 87196 PWs)   bands (ev):

    -8.5486  -7.8098  -7.7876  -7.7701  -7.2373  -7.2188  -7.0011  -6.5272
    -6.4894  -6.4769  -6.2627  -6.1991  -5.9565  -5.7298  -5.6872  -5.5117
    -5.4788  -5.2717  -4.9807  -4.9661  -4.8244  -4.7114  -4.6154  -4.5150
    -4.3678  -3.7127  -3.5912  -3.5673  -3.2508  -3.2231  -3.0214  -2.9058
    -2.8339  -2.7557  -2.6619  -2.5169  -2.2845  -2.2378  -1.6873  -1.5900
    -1.4975  -0.9852  -0.8599  -0.7651  -0.7106  -0.6281  -0.5306  -0.4869
    -0.3439  -0.2331  -0.1569  -0.0700  -0.0257   0.1687   0.2276   0.2419
     0.3579   0.5455   0.5819   0.6537   0.6922   0.7890   0.8290   0.9266
     0.9683   1.0959   1.1475   1.1793   1.1943   1.3420   1.3829   1.4065
     1.4656   1.6825   1.6877   1.7804   1.8407   1.8523   1.9925   2.0692
     2.1035   2.1357   2.2074   2.2356

     highest occupied level (ev):     2.3884

!    total energy              =    -327.03729052 Ry
     estimated scf accuracy    <       0.00000023 Ry

     The total energy is the sum of the following terms:
     one-electron contribution =     -81.48607216 Ry
     hartree contribution      =      90.16493594 Ry
     xc contribution           =     -94.38513636 Ry
     ewald contribution        =    -241.33101794 Ry

     convergence has been achieved in  29 iterations

     Forces acting on atoms (cartesian axes, Ry/au):

     atom    1 type  1   force =    -0.00171138   -0.00171138   -0.00744186
     atom    2 type  1   force =    -0.01277709    0.01277709    0.00046042
     atom    3 type  1   force =     0.01277709   -0.01277709    0.00046042
     atom    4 type  1   force =     0.00171138    0.00171138   -0.00744186
     atom    5 type  1   force =    -0.00180396   -0.00180396   -0.00453377
     atom    6 type  1   force =    -0.00665937    0.00665937    0.00101045
     atom    7 type  1   force =     0.00665937   -0.00665937    0.00101045
     atom    8 type  1   force =     0.00180396    0.00180396   -0.00453377
     atom    9 type  1   force =     0.00000000    0.00000000   -0.02933502
     atom   10 type  1   force =     0.00000000    0.00000000    0.00342141
     atom   11 type  1   force =     0.00138595   -0.00051037   -0.00099658
     atom   12 type  1   force =    -0.00138595    0.00051037   -0.00099658
     atom   13 type  1   force =     0.00819026    0.01119184    0.01905556
     atom   14 type  1   force =    -0.00819026   -0.01119184    0.01905556
     atom   15 type  1   force =    -0.00051037    0.00138595   -0.00099658
     atom   16 type  1   force =     0.00051037   -0.00138595   -0.00099658
     atom   17 type  1   force =     0.01119184    0.00819026    0.01905556
     atom   18 type  1   force =    -0.01119184   -0.00819026    0.01905556
     atom   19 type  1   force =    -0.00421535   -0.00421535   -0.00775217
     atom   20 type  1   force =     0.01146312   -0.02245783    0.00327679
     atom   21 type  1   force =    -0.02245783    0.01146312    0.00327679
     atom   22 type  1   force =    -0.00533824   -0.00533824    0.01058434
     atom   23 type  1   force =    -0.00235733   -0.00235733   -0.00221530
     atom   24 type  1   force =     0.02344267    0.00732497   -0.00520882
     atom   25 type  1   force =     0.00732497    0.02344267   -0.00520882
     atom   26 type  1   force =     0.01062802    0.01062802   -0.00530831
     atom   27 type  1   force =     0.00533824    0.00533824    0.01058434
     atom   28 type  1   force =     0.02245783   -0.01146312    0.00327679
     atom   29 type  1   force =    -0.01146312    0.02245783    0.00327679
     atom   30 type  1   force =     0.00421535    0.00421535   -0.00775217
     atom   31 type  1   force =    -0.01062802   -0.01062802   -0.00530831
     atom   32 type  1   force =    -0.00732497   -0.02344267   -0.00520882
     atom   33 type  1   force =    -0.02344267   -0.00732497   -0.00520882
     atom   34 type  1   force =     0.00235733    0.00235733   -0.00221530
     atom   35 type  1   force =    -0.00609806   -0.02644251    0.00172812
     atom   36 type  1   force =     0.01228349   -0.01228349   -0.01050596
     atom   37 type  1   force =    -0.00275736    0.00275736    0.00294884
     atom   38 type  1   force =     0.02644251    0.00609806    0.00172812
     atom   39 type  1   force =    -0.02644251   -0.00609806    0.00172812
     atom   40 type  1   force =     0.00275736   -0.00275736    0.00294884
     atom   41 type  1   force =    -0.01228349    0.01228349   -0.01050596
     atom   42 type  1   force =     0.00609806    0.02644251    0.00172812

     Total force =     0.118839     Total SCF correction =     0.000707


     Computing stress (Cartesian axis) and pressure

          total   stress  (Ry/bohr**3)                   (kbar)     P=      -33.99
  -0.00024552   0.00000337   0.00000000          -36.12        0.50        0.00
   0.00000337  -0.00024552   0.00000000            0.50      -36.12        0.00
   0.00000000   0.00000000  -0.00020211            0.00        0.00      -29.73


     Writing output data file ./Si64.save/

     init_run     :     67.52s CPU    122.03s WALL (       1 calls)
     electrons    :  12976.70s CPU  26973.96s WALL (       1 calls)
     forces       :     34.15s CPU     87.16s WALL (       1 calls)
     stress       :     43.61s CPU     56.94s WALL (       1 calls)

     Called by init_run:
     wfcinit      :     66.94s CPU    121.43s WALL (       1 calls)
     potinit      :      0.06s CPU      0.06s WALL (       1 calls)
     hinit0       :      0.06s CPU      0.06s WALL (       1 calls)

     Called by electrons:
     c_bands      :  12859.78s CPU  26855.49s WALL (      30 calls)
     sum_band     :    112.23s CPU    113.41s WALL (      30 calls)
     v_of_rho     :      1.04s CPU      1.23s WALL (      30 calls)
     mix_rho      :      3.44s CPU      3.49s WALL (      30 calls)

     Called by c_bands:
     init_us_2    :      9.31s CPU     14.82s WALL (    4032 calls)
     cegterg      :  12672.01s CPU  26423.00s WALL (    1920 calls)

     Called by *egterg:
     cdiaghg      :   3360.78s CPU   4302.63s WALL (   17296 calls)
     h_psi        :   3464.49s CPU   8493.71s WALL (   17424 calls)
     g_psi        :      2.82s CPU      5.07s WALL (   15440 calls)

     Called by h_psi:
     h_psi:calbec :   2172.59s CPU   5404.01s WALL (   17424 calls)
     vloc_psi     :    873.53s CPU   1236.17s WALL (   17424 calls)
     add_vuspsi   :    413.62s CPU   1830.72s WALL (   17424 calls)

     General routines
     calbec       :   2219.17s CPU   5497.42s WALL (   17744 calls)
     fft          :      0.53s CPU      0.64s WALL (     308 calls)
     ffts         :      0.06s CPU      0.06s WALL (      30 calls)
     fftw         :    908.78s CPU   1233.90s WALL ( 1116418 calls)

     Parallel routines
     fft_scatt_xy :     71.41s CPU     77.36s WALL ( 1116756 calls)
     fft_scatt_yz :    546.69s CPU    821.73s WALL ( 1116756 calls)

     PWSCF        :      3h38m CPU      7h34m WALL


   This run was terminated on:  20: 6: 1  24Feb2022            

=------------------------------------------------------------------------------=
   JOB DONE.
=------------------------------------------------------------------------------=
