
     Program PWSCF v.6.7MaX starts on 24Feb2022 at 12:31:41 

     This program is part of the open-source Quantum ESPRESSO suite
     for quantum simulation of materials; please cite
         "P. Giannozzi et al., J. Phys.:Condens. Matter 21 395502 (2009);
         "P. Giannozzi et al., J. Phys.:Condens. Matter 29 465901 (2017);
          URL http://www.quantum-espresso.org", 
     in publications or presentations arising from this work. More details at
     http://www.quantum-espresso.org/quote

     Parallel version (MPI), running on    40 processors

     MPI processes distributed on     1 nodes
     R & G space division:  proc/nbgrp/npool/nimage =      40
     Waiting for input...
     Reading input from standard input

     Current dimensions of program PWSCF are:
     Max number of different atomic species (ntypx) = 10
     Max number of k-points (npk) =  40000
     Max angular momentum in pseudopotentials (lmaxx) =  3

     Subspace diagonalization in iterative solution of the eigenvalue problem:
     a serial algorithm will be used

     Message from routine setup:
     using ibrav=0 with symmetry is DISCOURAGED, use correct ibrav instead

     Parallelization info
     --------------------
     sticks:   dense  smooth     PW     G-vecs:    dense   smooth      PW
     Min         237     237     63                17457    17457    2393
     Max         238     238     64                17460    17460    2396
     Sum        9517    9517   2537               698355   698355   95769



     bravais-lattice index     =            0
     lattice parameter (alat)  =      20.6660  a.u.
     unit-cell volume          =    8826.0878 (a.u.)^3
     number of atoms/cell      =           42
     number of atomic types    =            1
     number of electrons       =       168.00
     number of Kohn-Sham states=           84
     kinetic-energy cutoff     =      70.0000  Ry
     charge density cutoff     =     280.0000  Ry
     scf convergence threshold =      1.0E-06
     mixing beta               =       0.7000
     number of iterations used =            8  plain     mixing
     Exchange-correlation=  SLA  PW   PBE  PBE
                           (   1   4   3   4   0   0   0)

     celldm(1)=  20.665984  celldm(2)=   0.000000  celldm(3)=   0.000000
     celldm(4)=   0.000000  celldm(5)=   0.000000  celldm(6)=   0.000000

     crystal axes: (cart. coord. in units of alat)
               a(1) = (   1.000000   0.000000   0.000000 )  
               a(2) = (   0.000000   1.000000   0.000000 )  
               a(3) = (   0.000000   0.000000   1.000000 )  

     reciprocal axes: (cart. coord. in units 2 pi/alat)
               b(1) = (  1.000000  0.000000  0.000000 )  
               b(2) = (  0.000000  1.000000  0.000000 )  
               b(3) = (  0.000000  0.000000  1.000000 )  


     PseudoPot. # 1 for Si read from file:
     ./Si.pbe-rrkj.UPF
     MD5 check sum: cf7ab5690cd9a85b22c4813f7e365554
     Pseudo is Norm-conserving, Zval =  4.0
     Generated by new atomic code, or converted to UPF format
     Using radial grid of  883 points,  3 beta functions with: 
                l(1) =   0
                l(2) =   0
                l(3) =   1

     atomic species   valence    mass     pseudopotential
        Si             4.00    28.08600     Si( 1.00)

      4 Sym. Ops. (no inversion) found



   Cartesian axes

     site n.     atom                  positions (alat units)
         1           Si  tau(   1) = (   0.2500000   0.2500000   0.0000000  )
         2           Si  tau(   2) = (   0.7500000   0.2500000   0.0000000  )
         3           Si  tau(   3) = (   0.2500000   0.7500000   0.0000000  )
         4           Si  tau(   4) = (   0.7500000   0.7500000   0.0000000  )
         5           Si  tau(   5) = (   0.2500000   0.2500000   0.5000000  )
         6           Si  tau(   6) = (   0.7500000   0.2500000   0.5000000  )
         7           Si  tau(   7) = (   0.2500000   0.7500000   0.5000000  )
         8           Si  tau(   8) = (   0.7500000   0.7500000   0.5000000  )
         9           Si  tau(   9) = (   0.5000000   0.5000000   0.0000000  )
        10           Si  tau(  10) = (   0.5000000   0.5000000   0.5000000  )
        11           Si  tau(  11) = (   0.2500000   0.5000000   0.2500000  )
        12           Si  tau(  12) = (   0.7500000   0.5000000   0.2500000  )
        13           Si  tau(  13) = (   0.2500000   0.5000000   0.7500000  )
        14           Si  tau(  14) = (   0.7500000   0.5000000   0.7500000  )
        15           Si  tau(  15) = (   0.5000000   0.2500000   0.2500000  )
        16           Si  tau(  16) = (   0.5000000   0.7500000   0.2500000  )
        17           Si  tau(  17) = (   0.5000000   0.2500000   0.7500000  )
        18           Si  tau(  18) = (   0.5000000   0.7500000   0.7500000  )
        19           Si  tau(  19) = (   0.3750000   0.3750000   0.1250000  )
        20           Si  tau(  20) = (   0.8750000   0.3750000   0.1250000  )
        21           Si  tau(  21) = (   0.3750000   0.8750000   0.1250000  )
        22           Si  tau(  22) = (   0.8750000   0.8750000   0.1250000  )
        23           Si  tau(  23) = (   0.3750000   0.3750000   0.6250000  )
        24           Si  tau(  24) = (   0.8750000   0.3750000   0.6250000  )
        25           Si  tau(  25) = (   0.3750000   0.8750000   0.6250000  )
        26           Si  tau(  26) = (   0.8750000   0.8750000   0.6250000  )
        27           Si  tau(  27) = (   0.1250000   0.1250000   0.1250000  )
        28           Si  tau(  28) = (   0.6250000   0.1250000   0.1250000  )
        29           Si  tau(  29) = (   0.1250000   0.6250000   0.1250000  )
        30           Si  tau(  30) = (   0.6250000   0.6250000   0.1250000  )
        31           Si  tau(  31) = (   0.1250000   0.1250000   0.6250000  )
        32           Si  tau(  32) = (   0.6250000   0.1250000   0.6250000  )
        33           Si  tau(  33) = (   0.1250000   0.6250000   0.6250000  )
        34           Si  tau(  34) = (   0.6250000   0.6250000   0.6250000  )
        35           Si  tau(  35) = (   0.3750000   0.1250000   0.3750000  )
        36           Si  tau(  36) = (   0.8750000   0.1250000   0.3750000  )
        37           Si  tau(  37) = (   0.3750000   0.6250000   0.3750000  )
        38           Si  tau(  38) = (   0.8750000   0.6250000   0.3750000  )
        39           Si  tau(  39) = (   0.1250000   0.3750000   0.3750000  )
        40           Si  tau(  40) = (   0.6250000   0.3750000   0.3750000  )
        41           Si  tau(  41) = (   0.1250000   0.8750000   0.3750000  )
        42           Si  tau(  42) = (   0.6250000   0.8750000   0.3750000  )

     number of k points=    64
                       cart. coord. in units 2pi/alat
        k(    1) = (   0.0714286   0.0714286   0.0714286), wk =   0.0233236
        k(    2) = (   0.0714286   0.0714286   0.2142857), wk =   0.0233236
        k(    3) = (   0.0714286   0.0714286   0.3571429), wk =   0.0233236
        k(    4) = (   0.0714286   0.0714286  -0.5000000), wk =   0.0116618
        k(    5) = (   0.0714286   0.2142857   0.2142857), wk =   0.0466472
        k(    6) = (   0.0714286   0.2142857   0.3571429), wk =   0.0466472
        k(    7) = (   0.0714286   0.2142857  -0.5000000), wk =   0.0233236
        k(    8) = (   0.0714286   0.3571429   0.3571429), wk =   0.0466472
        k(    9) = (   0.0714286   0.3571429  -0.5000000), wk =   0.0233236
        k(   10) = (   0.0714286  -0.5000000  -0.5000000), wk =   0.0233236
        k(   11) = (   0.2142857   0.2142857   0.2142857), wk =   0.0233236
        k(   12) = (   0.2142857   0.2142857   0.3571429), wk =   0.0233236
        k(   13) = (   0.2142857   0.2142857  -0.5000000), wk =   0.0116618
        k(   14) = (   0.2142857   0.3571429   0.3571429), wk =   0.0466472
        k(   15) = (   0.2142857   0.3571429  -0.5000000), wk =   0.0233236
        k(   16) = (   0.2142857  -0.5000000  -0.5000000), wk =   0.0233236
        k(   17) = (   0.3571429   0.3571429   0.3571429), wk =   0.0233236
        k(   18) = (   0.3571429   0.3571429  -0.5000000), wk =   0.0116618
        k(   19) = (   0.3571429  -0.5000000  -0.5000000), wk =   0.0233236
        k(   20) = (  -0.5000000  -0.5000000  -0.5000000), wk =   0.0058309
        k(   21) = (   0.0714286  -0.0714286   0.0714286), wk =   0.0233236
        k(   22) = (   0.0714286  -0.0714286   0.2142857), wk =   0.0233236
        k(   23) = (   0.2142857  -0.0714286   0.0714286), wk =   0.0466472
        k(   24) = (  -0.2142857  -0.0714286  -0.0714286), wk =   0.0466472
        k(   25) = (   0.0714286  -0.0714286   0.3571429), wk =   0.0233236
        k(   26) = (   0.3571429  -0.0714286   0.0714286), wk =   0.0466472
        k(   27) = (  -0.3571429  -0.0714286  -0.0714286), wk =   0.0466472
        k(   28) = (   0.0714286  -0.0714286  -0.5000000), wk =   0.0116618
        k(   29) = (  -0.5000000  -0.0714286   0.0714286), wk =   0.0466472
        k(   30) = (   0.2142857  -0.0714286   0.2142857), wk =   0.0466472
        k(   31) = (   0.2142857  -0.2142857   0.0714286), wk =   0.0233236
        k(   32) = (  -0.2142857  -0.2142857  -0.0714286), wk =   0.0233236
        k(   33) = (   0.2142857  -0.0714286   0.3571429), wk =   0.0466472
        k(   34) = (   0.3571429  -0.2142857   0.0714286), wk =   0.0466472
        k(   35) = (  -0.3571429  -0.2142857  -0.0714286), wk =   0.0466472
        k(   36) = (  -0.0714286   0.3571429   0.2142857), wk =   0.0466472
        k(   37) = (  -0.0714286  -0.3571429  -0.2142857), wk =   0.0466472
        k(   38) = (   0.2142857  -0.0714286  -0.5000000), wk =   0.0233236
        k(   39) = (  -0.5000000  -0.2142857   0.0714286), wk =   0.0466472
        k(   40) = (  -0.0714286  -0.5000000   0.2142857), wk =   0.0466472
        k(   41) = (   0.3571429  -0.0714286   0.3571429), wk =   0.0466472
        k(   42) = (   0.3571429  -0.3571429   0.0714286), wk =   0.0233236
        k(   43) = (  -0.3571429  -0.3571429  -0.0714286), wk =   0.0233236
        k(   44) = (   0.3571429  -0.0714286  -0.5000000), wk =   0.0233236
        k(   45) = (  -0.5000000  -0.3571429   0.0714286), wk =   0.0466472
        k(   46) = (  -0.0714286  -0.5000000   0.3571429), wk =   0.0466472
        k(   47) = (  -0.5000000   0.5000000   0.0714286), wk =   0.0116618
        k(   48) = (   0.2142857  -0.2142857   0.2142857), wk =   0.0233236
        k(   49) = (   0.2142857  -0.2142857   0.3571429), wk =   0.0233236
        k(   50) = (   0.3571429  -0.2142857   0.2142857), wk =   0.0466472
        k(   51) = (  -0.3571429  -0.2142857  -0.2142857), wk =   0.0466472
        k(   52) = (   0.2142857  -0.2142857  -0.5000000), wk =   0.0116618
        k(   53) = (  -0.5000000  -0.2142857   0.2142857), wk =   0.0466472
        k(   54) = (   0.3571429  -0.2142857   0.3571429), wk =   0.0466472
        k(   55) = (   0.3571429  -0.3571429   0.2142857), wk =   0.0233236
        k(   56) = (  -0.3571429  -0.3571429  -0.2142857), wk =   0.0233236
        k(   57) = (   0.3571429  -0.2142857  -0.5000000), wk =   0.0233236
        k(   58) = (  -0.5000000  -0.3571429   0.2142857), wk =   0.0466472
        k(   59) = (  -0.2142857  -0.5000000   0.3571429), wk =   0.0466472
        k(   60) = (  -0.5000000   0.5000000   0.2142857), wk =   0.0116618
        k(   61) = (   0.3571429  -0.3571429   0.3571429), wk =   0.0233236
        k(   62) = (   0.3571429  -0.3571429  -0.5000000), wk =   0.0116618
        k(   63) = (  -0.5000000  -0.3571429   0.3571429), wk =   0.0466472
        k(   64) = (  -0.5000000   0.5000000   0.3571429), wk =   0.0116618

     Dense  grid:   698355 G-vectors     FFT dimensions: ( 120, 120, 120)

     Estimated max dynamical RAM per process >     211.99 MB

     Estimated total dynamical RAM >       8.28 GB

     Initial potential from superposition of free atoms

     starting charge  167.97676, renormalised to  168.00000
     Starting wfcs are  168 randomized atomic wfcs

     total cpu time spent up to now is      122.2 secs

     Self-consistent Calculation

     iteration #  1     ecut=    70.00 Ry     beta= 0.70
     Davidson diagonalization with overlap
     ethr =  1.00E-02,  avg # of iterations =  2.0

     Threshold (ethr) on eigenvalues was too large:
     Diagonalizing with lowered threshold

     Davidson diagonalization with overlap
     ethr =  8.56E-04,  avg # of iterations =  3.3

     total cpu time spent up to now is      866.3 secs

     total energy              =    -326.27144841 Ry
     estimated scf accuracy    <       1.78976264 Ry

     iteration #  2     ecut=    70.00 Ry     beta= 0.70
     Davidson diagonalization with overlap
     ethr =  1.07E-03,  avg # of iterations = 13.8

     total cpu time spent up to now is     2372.6 secs

     total energy              =    -323.49448049 Ry
     estimated scf accuracy    <      33.10768943 Ry

     iteration #  3     ecut=    70.00 Ry     beta= 0.70
     Davidson diagonalization with overlap
     ethr =  1.07E-03,  avg # of iterations = 11.2

     total cpu time spent up to now is     3621.6 secs

     total energy              =    -326.74239176 Ry
     estimated scf accuracy    <       1.37845164 Ry

     iteration #  4     ecut=    70.00 Ry     beta= 0.70
     Davidson diagonalization with overlap
     ethr =  8.21E-04,  avg # of iterations =  8.2

     total cpu time spent up to now is     4529.4 secs

     total energy              =    -326.85457029 Ry
     estimated scf accuracy    <       2.12265437 Ry

     iteration #  5     ecut=    70.00 Ry     beta= 0.70
     Davidson diagonalization with overlap
     ethr =  8.21E-04,  avg # of iterations =  4.5

     total cpu time spent up to now is     5077.3 secs

     total energy              =    -326.93852319 Ry
     estimated scf accuracy    <       0.36116640 Ry

     iteration #  6     ecut=    70.00 Ry     beta= 0.70
     Davidson diagonalization with overlap
     ethr =  2.15E-04,  avg # of iterations =  6.8

     total cpu time spent up to now is     5863.1 secs

     total energy              =    -327.03028996 Ry
     estimated scf accuracy    <       0.10040277 Ry

     iteration #  7     ecut=    70.00 Ry     beta= 0.70
     Davidson diagonalization with overlap
     c_bands:  1 eigenvalues not converged
     ethr =  5.98E-05,  avg # of iterations =  6.0

     total cpu time spent up to now is     6566.5 secs

     total energy              =    -327.02507169 Ry
     estimated scf accuracy    <       0.08385412 Ry

     iteration #  8     ecut=    70.00 Ry     beta= 0.70
     Davidson diagonalization with overlap
     c_bands:  1 eigenvalues not converged
     ethr =  4.99E-05,  avg # of iterations =  5.8

     total cpu time spent up to now is     7230.2 secs

     total energy              =    -327.03073739 Ry
     estimated scf accuracy    <       0.01412216 Ry

     iteration #  9     ecut=    70.00 Ry     beta= 0.70
     Davidson diagonalization with overlap
     c_bands:  1 eigenvalues not converged
     c_bands:  1 eigenvalues not converged
     c_bands:  1 eigenvalues not converged
     c_bands:  2 eigenvalues not converged
     c_bands:  2 eigenvalues not converged
     c_bands:  1 eigenvalues not converged
     c_bands:  1 eigenvalues not converged
     c_bands:  1 eigenvalues not converged
     c_bands:  1 eigenvalues not converged
     c_bands:  2 eigenvalues not converged
     c_bands:  1 eigenvalues not converged
     c_bands:  2 eigenvalues not converged
     c_bands:  1 eigenvalues not converged
     c_bands:  1 eigenvalues not converged
     c_bands:  1 eigenvalues not converged
     c_bands:  1 eigenvalues not converged
     c_bands:  1 eigenvalues not converged
     c_bands:  1 eigenvalues not converged
     ethr =  8.41E-06,  avg # of iterations = 15.5

     total cpu time spent up to now is     8852.0 secs

     total energy              =    -327.03722931 Ry
     estimated scf accuracy    <       0.01145585 Ry

     iteration # 10     ecut=    70.00 Ry     beta= 0.70
     Davidson diagonalization with overlap
     c_bands:  1 eigenvalues not converged
     ethr =  6.82E-06,  avg # of iterations =  3.7

     total cpu time spent up to now is     9321.1 secs

     total energy              =    -327.03580354 Ry
     estimated scf accuracy    <       0.01105483 Ry

     iteration # 11     ecut=    70.00 Ry     beta= 0.70
     Davidson diagonalization with overlap
     c_bands:  1 eigenvalues not converged
     c_bands:  1 eigenvalues not converged
     ethr =  6.58E-06,  avg # of iterations =  8.3

     total cpu time spent up to now is    10227.1 secs

     total energy              =    -327.03630837 Ry
     estimated scf accuracy    <       0.00227914 Ry

     iteration # 12     ecut=    70.00 Ry     beta= 0.70
     Davidson diagonalization with overlap
     c_bands:  1 eigenvalues not converged
     c_bands:  1 eigenvalues not converged
     c_bands:  1 eigenvalues not converged
     c_bands:  1 eigenvalues not converged
     c_bands:  1 eigenvalues not converged
     c_bands:  1 eigenvalues not converged
     c_bands:  1 eigenvalues not converged
     c_bands:  1 eigenvalues not converged
     ethr =  1.36E-06,  avg # of iterations = 14.7

     total cpu time spent up to now is    11788.6 secs

     total energy              =    -327.03710986 Ry
     estimated scf accuracy    <       0.00477011 Ry

     iteration # 13     ecut=    70.00 Ry     beta= 0.70
     Davidson diagonalization with overlap
     c_bands:  1 eigenvalues not converged
     c_bands:  1 eigenvalues not converged
     ethr =  1.36E-06,  avg # of iterations =  3.7

     total cpu time spent up to now is    12262.5 secs

     total energy              =    -327.03702202 Ry
     estimated scf accuracy    <       0.00244721 Ry

     iteration # 14     ecut=    70.00 Ry     beta= 0.70
     Davidson diagonalization with overlap
     c_bands:  1 eigenvalues not converged
     ethr =  1.36E-06,  avg # of iterations =  4.4

     total cpu time spent up to now is    12794.3 secs

     total energy              =    -327.03697481 Ry
     estimated scf accuracy    <       0.00084592 Ry

     iteration # 15     ecut=    70.00 Ry     beta= 0.70
     Davidson diagonalization with overlap
     c_bands:  1 eigenvalues not converged
     c_bands:  1 eigenvalues not converged
     c_bands:  1 eigenvalues not converged
     c_bands:  1 eigenvalues not converged
     c_bands:  1 eigenvalues not converged
     c_bands:  1 eigenvalues not converged
     c_bands:  1 eigenvalues not converged
     ethr =  5.04E-07,  avg # of iterations = 15.0

     total cpu time spent up to now is    14386.1 secs

     total energy              =    -327.03733275 Ry
     estimated scf accuracy    <       0.00155407 Ry

     iteration # 16     ecut=    70.00 Ry     beta= 0.70
     Davidson diagonalization with overlap
     ethr =  5.04E-07,  avg # of iterations =  1.3

     total cpu time spent up to now is    14628.4 secs

     total energy              =    -327.03725986 Ry
     estimated scf accuracy    <       0.00125435 Ry

     iteration # 17     ecut=    70.00 Ry     beta= 0.70
     Davidson diagonalization with overlap
     ethr =  5.04E-07,  avg # of iterations =  1.7

     total cpu time spent up to now is    14904.5 secs

     total energy              =    -327.03717416 Ry
     estimated scf accuracy    <       0.00081776 Ry

     iteration # 18     ecut=    70.00 Ry     beta= 0.70
     Davidson diagonalization with overlap
     ethr =  4.87E-07,  avg # of iterations =  7.8

     total cpu time spent up to now is    15753.5 secs

     total energy              =    -327.03724625 Ry
     estimated scf accuracy    <       0.00007102 Ry

     iteration # 19     ecut=    70.00 Ry     beta= 0.70
     Davidson diagonalization with overlap
     c_bands:  1 eigenvalues not converged
     c_bands:  1 eigenvalues not converged
     c_bands:  1 eigenvalues not converged
     c_bands:  1 eigenvalues not converged
     c_bands:  1 eigenvalues not converged
     c_bands:  1 eigenvalues not converged
     c_bands:  1 eigenvalues not converged
     c_bands:  1 eigenvalues not converged
     c_bands:  1 eigenvalues not converged
     c_bands:  1 eigenvalues not converged
     c_bands:  1 eigenvalues not converged
     c_bands:  2 eigenvalues not converged
     c_bands:  1 eigenvalues not converged
     c_bands:  1 eigenvalues not converged
     c_bands:  1 eigenvalues not converged
     c_bands:  1 eigenvalues not converged
     c_bands:  1 eigenvalues not converged
     c_bands:  1 eigenvalues not converged
     ethr =  4.23E-08,  avg # of iterations = 15.5

     total cpu time spent up to now is    17381.3 secs

     total energy              =    -327.03730391 Ry
     estimated scf accuracy    <       0.00006695 Ry

     iteration # 20     ecut=    70.00 Ry     beta= 0.70
     Davidson diagonalization with overlap
     c_bands:  1 eigenvalues not converged
     c_bands:  1 eigenvalues not converged
     c_bands:  1 eigenvalues not converged
     c_bands:  1 eigenvalues not converged
     c_bands:  1 eigenvalues not converged
     ethr =  3.99E-08,  avg # of iterations =  7.3

     total cpu time spent up to now is    18197.5 secs

     total energy              =    -327.03730345 Ry
     estimated scf accuracy    <       0.00020150 Ry

     iteration # 21     ecut=    70.00 Ry     beta= 0.70
     Davidson diagonalization with overlap
     ethr =  3.99E-08,  avg # of iterations =  1.5

     total cpu time spent up to now is    18453.1 secs

     total energy              =    -327.03727836 Ry
     estimated scf accuracy    <       0.00018590 Ry

     iteration # 22     ecut=    70.00 Ry     beta= 0.70
     Davidson diagonalization with overlap
     c_bands:  1 eigenvalues not converged
     c_bands:  1 eigenvalues not converged
     c_bands:  1 eigenvalues not converged
     c_bands:  1 eigenvalues not converged
     ethr =  3.99E-08,  avg # of iterations =  8.2

     total cpu time spent up to now is    19369.6 secs

     total energy              =    -327.03728388 Ry
     estimated scf accuracy    <       0.00002851 Ry

     iteration # 23     ecut=    70.00 Ry     beta= 0.70
     Davidson diagonalization with overlap
     c_bands:  1 eigenvalues not converged
     c_bands:  1 eigenvalues not converged
     c_bands:  1 eigenvalues not converged
     c_bands:  1 eigenvalues not converged
     ethr =  1.70E-08,  avg # of iterations =  9.2

     total cpu time spent up to now is    20392.1 secs

     total energy              =    -327.03729667 Ry
     estimated scf accuracy    <       0.00000920 Ry

     iteration # 24     ecut=    70.00 Ry     beta= 0.70
     Davidson diagonalization with overlap
     c_bands:  1 eigenvalues not converged
     c_bands:  1 eigenvalues not converged
     c_bands:  1 eigenvalues not converged
     c_bands:  1 eigenvalues not converged
     c_bands:  1 eigenvalues not converged
     c_bands:  1 eigenvalues not converged
     c_bands:  1 eigenvalues not converged
     c_bands:  1 eigenvalues not converged
     c_bands:  2 eigenvalues not converged
     c_bands:  1 eigenvalues not converged
     c_bands:  1 eigenvalues not converged
