
     Program PWSCF v.6.7MaX starts on 24Feb2022 at  8:12:38 

     This program is part of the open-source Quantum ESPRESSO suite
     for quantum simulation of materials; please cite
         "P. Giannozzi et al., J. Phys.:Condens. Matter 21 395502 (2009);
         "P. Giannozzi et al., J. Phys.:Condens. Matter 29 465901 (2017);
          URL http://www.quantum-espresso.org", 
     in publications or presentations arising from this work. More details at
     http://www.quantum-espresso.org/quote

     Parallel version (MPI), running on    40 processors

     MPI processes distributed on     1 nodes
     R & G space division:  proc/nbgrp/npool/nimage =      40
     Waiting for input...
     Reading input from standard input

     Current dimensions of program PWSCF are:
     Max number of different atomic species (ntypx) = 10
     Max number of k-points (npk) =  40000
     Max angular momentum in pseudopotentials (lmaxx) =  3

     Subspace diagonalization in iterative solution of the eigenvalue problem:
     a serial algorithm will be used

     Message from routine setup:
     using ibrav=0 with symmetry is DISCOURAGED, use correct ibrav instead

     Parallelization info
     --------------------
     sticks:   dense  smooth     PW     G-vecs:    dense   smooth      PW
     Min         237     237     62                17457    17457    2356
     Max         238     238     63                17460    17460    2361
     Sum        9517    9517   2509               698355   698355   94341



     bravais-lattice index     =            0
     lattice parameter (alat)  =      20.6660  a.u.
     unit-cell volume          =    8826.0878 (a.u.)^3
     number of atoms/cell      =           42
     number of atomic types    =            1
     number of electrons       =       168.00
     number of Kohn-Sham states=           84
     kinetic-energy cutoff     =      70.0000  Ry
     charge density cutoff     =     280.0000  Ry
     scf convergence threshold =      1.0E-06
     mixing beta               =       0.7000
     number of iterations used =            8  plain     mixing
     Exchange-correlation=  SLA  PW   PBE  PBE
                           (   1   4   3   4   0   0   0)

     celldm(1)=  20.665984  celldm(2)=   0.000000  celldm(3)=   0.000000
     celldm(4)=   0.000000  celldm(5)=   0.000000  celldm(6)=   0.000000

     crystal axes: (cart. coord. in units of alat)
               a(1) = (   1.000000   0.000000   0.000000 )  
               a(2) = (   0.000000   1.000000   0.000000 )  
               a(3) = (   0.000000   0.000000   1.000000 )  

     reciprocal axes: (cart. coord. in units 2 pi/alat)
               b(1) = (  1.000000  0.000000  0.000000 )  
               b(2) = (  0.000000  1.000000  0.000000 )  
               b(3) = (  0.000000  0.000000  1.000000 )  


     PseudoPot. # 1 for Si read from file:
     ./Si.pbe-rrkj.UPF
     MD5 check sum: cf7ab5690cd9a85b22c4813f7e365554
     Pseudo is Norm-conserving, Zval =  4.0
     Generated by new atomic code, or converted to UPF format
     Using radial grid of  883 points,  3 beta functions with: 
                l(1) =   0
                l(2) =   0
                l(3) =   1

     atomic species   valence    mass     pseudopotential
        Si             4.00    28.08600     Si( 1.00)

      4 Sym. Ops. (no inversion) found



   Cartesian axes

     site n.     atom                  positions (alat units)
         1           Si  tau(   1) = (   0.2500000   0.2500000   0.0000000  )
         2           Si  tau(   2) = (   0.7500000   0.2500000   0.0000000  )
         3           Si  tau(   3) = (   0.2500000   0.7500000   0.0000000  )
         4           Si  tau(   4) = (   0.7500000   0.7500000   0.0000000  )
         5           Si  tau(   5) = (   0.2500000   0.2500000   0.5000000  )
         6           Si  tau(   6) = (   0.7500000   0.2500000   0.5000000  )
         7           Si  tau(   7) = (   0.2500000   0.7500000   0.5000000  )
         8           Si  tau(   8) = (   0.7500000   0.7500000   0.5000000  )
         9           Si  tau(   9) = (   0.5000000   0.5000000   0.0000000  )
        10           Si  tau(  10) = (   0.5000000   0.5000000   0.5000000  )
        11           Si  tau(  11) = (   0.2500000   0.5000000   0.2500000  )
        12           Si  tau(  12) = (   0.7500000   0.5000000   0.2500000  )
        13           Si  tau(  13) = (   0.2500000   0.5000000   0.7500000  )
        14           Si  tau(  14) = (   0.7500000   0.5000000   0.7500000  )
        15           Si  tau(  15) = (   0.5000000   0.2500000   0.2500000  )
        16           Si  tau(  16) = (   0.5000000   0.7500000   0.2500000  )
        17           Si  tau(  17) = (   0.5000000   0.2500000   0.7500000  )
        18           Si  tau(  18) = (   0.5000000   0.7500000   0.7500000  )
        19           Si  tau(  19) = (   0.3750000   0.3750000   0.1250000  )
        20           Si  tau(  20) = (   0.8750000   0.3750000   0.1250000  )
        21           Si  tau(  21) = (   0.3750000   0.8750000   0.1250000  )
        22           Si  tau(  22) = (   0.8750000   0.8750000   0.1250000  )
        23           Si  tau(  23) = (   0.3750000   0.3750000   0.6250000  )
        24           Si  tau(  24) = (   0.8750000   0.3750000   0.6250000  )
        25           Si  tau(  25) = (   0.3750000   0.8750000   0.6250000  )
        26           Si  tau(  26) = (   0.8750000   0.8750000   0.6250000  )
        27           Si  tau(  27) = (   0.1250000   0.1250000   0.1250000  )
        28           Si  tau(  28) = (   0.6250000   0.1250000   0.1250000  )
        29           Si  tau(  29) = (   0.1250000   0.6250000   0.1250000  )
        30           Si  tau(  30) = (   0.6250000   0.6250000   0.1250000  )
        31           Si  tau(  31) = (   0.1250000   0.1250000   0.6250000  )
        32           Si  tau(  32) = (   0.6250000   0.1250000   0.6250000  )
        33           Si  tau(  33) = (   0.1250000   0.6250000   0.6250000  )
        34           Si  tau(  34) = (   0.6250000   0.6250000   0.6250000  )
        35           Si  tau(  35) = (   0.3750000   0.1250000   0.3750000  )
        36           Si  tau(  36) = (   0.8750000   0.1250000   0.3750000  )
        37           Si  tau(  37) = (   0.3750000   0.6250000   0.3750000  )
        38           Si  tau(  38) = (   0.8750000   0.6250000   0.3750000  )
        39           Si  tau(  39) = (   0.1250000   0.3750000   0.3750000  )
        40           Si  tau(  40) = (   0.6250000   0.3750000   0.3750000  )
        41           Si  tau(  41) = (   0.1250000   0.8750000   0.3750000  )
        42           Si  tau(  42) = (   0.6250000   0.8750000   0.3750000  )

     number of k points=    36
                       cart. coord. in units 2pi/alat
        k(    1) = (   0.0833333   0.0833333   0.0833333), wk =   0.0370370
        k(    2) = (   0.0833333   0.0833333   0.2500000), wk =   0.0370370
        k(    3) = (   0.0833333   0.0833333   0.4166667), wk =   0.0370370
        k(    4) = (   0.0833333   0.2500000   0.2500000), wk =   0.0740741
        k(    5) = (   0.0833333   0.2500000   0.4166667), wk =   0.0740741
        k(    6) = (   0.0833333   0.4166667   0.4166667), wk =   0.0740741
        k(    7) = (   0.2500000   0.2500000   0.2500000), wk =   0.0370370
        k(    8) = (   0.2500000   0.2500000   0.4166667), wk =   0.0370370
        k(    9) = (   0.2500000   0.4166667   0.4166667), wk =   0.0740741
        k(   10) = (   0.4166667   0.4166667   0.4166667), wk =   0.0370370
        k(   11) = (   0.0833333  -0.0833333   0.0833333), wk =   0.0370370
        k(   12) = (   0.0833333  -0.0833333   0.2500000), wk =   0.0370370
        k(   13) = (   0.2500000  -0.0833333   0.0833333), wk =   0.0740741
        k(   14) = (  -0.2500000  -0.0833333  -0.0833333), wk =   0.0740741
        k(   15) = (   0.0833333  -0.0833333   0.4166667), wk =   0.0370370
        k(   16) = (   0.4166667  -0.0833333   0.0833333), wk =   0.0740741
        k(   17) = (  -0.4166667  -0.0833333  -0.0833333), wk =   0.0740741
        k(   18) = (   0.2500000  -0.0833333   0.2500000), wk =   0.0740741
        k(   19) = (   0.2500000  -0.2500000   0.0833333), wk =   0.0370370
        k(   20) = (  -0.2500000  -0.2500000  -0.0833333), wk =   0.0370370
        k(   21) = (   0.2500000  -0.0833333   0.4166667), wk =   0.0740741
        k(   22) = (   0.4166667  -0.2500000   0.0833333), wk =   0.0740741
        k(   23) = (  -0.4166667  -0.2500000  -0.0833333), wk =   0.0740741
        k(   24) = (  -0.0833333   0.4166667   0.2500000), wk =   0.0740741
        k(   25) = (  -0.0833333  -0.4166667  -0.2500000), wk =   0.0740741
        k(   26) = (   0.4166667  -0.0833333   0.4166667), wk =   0.0740741
        k(   27) = (   0.4166667  -0.4166667   0.0833333), wk =   0.0370370
        k(   28) = (  -0.4166667  -0.4166667  -0.0833333), wk =   0.0370370
        k(   29) = (   0.2500000  -0.2500000   0.2500000), wk =   0.0370370
        k(   30) = (   0.2500000  -0.2500000   0.4166667), wk =   0.0370370
        k(   31) = (   0.4166667  -0.2500000   0.2500000), wk =   0.0740741
        k(   32) = (  -0.4166667  -0.2500000  -0.2500000), wk =   0.0740741
        k(   33) = (   0.4166667  -0.2500000   0.4166667), wk =   0.0740741
        k(   34) = (   0.4166667  -0.4166667   0.2500000), wk =   0.0370370
        k(   35) = (  -0.4166667  -0.4166667  -0.2500000), wk =   0.0370370
        k(   36) = (   0.4166667  -0.4166667   0.4166667), wk =   0.0370370

     Dense  grid:   698355 G-vectors     FFT dimensions: ( 120, 120, 120)

     Estimated max dynamical RAM per process >     133.68 MB

     Estimated total dynamical RAM >       5.22 GB

     Initial potential from superposition of free atoms

     starting charge  167.97676, renormalised to  168.00000
     Starting wfcs are  168 randomized atomic wfcs

     total cpu time spent up to now is       66.7 secs

     Self-consistent Calculation

     iteration #  1     ecut=    70.00 Ry     beta= 0.70
     Davidson diagonalization with overlap
     ethr =  1.00E-02,  avg # of iterations =  2.0

     Threshold (ethr) on eigenvalues was too large:
     Diagonalizing with lowered threshold

     Davidson diagonalization with overlap
     ethr =  8.58E-04,  avg # of iterations =  3.2

     total cpu time spent up to now is      485.9 secs

     total energy              =    -326.27086623 Ry
     estimated scf accuracy    <       1.78983496 Ry

     iteration #  2     ecut=    70.00 Ry     beta= 0.70
     Davidson diagonalization with overlap
     ethr =  1.07E-03,  avg # of iterations = 13.1

     total cpu time spent up to now is     1288.5 secs

     total energy              =    -323.52008783 Ry
     estimated scf accuracy    <      32.83131179 Ry

     iteration #  3     ecut=    70.00 Ry     beta= 0.70
     Davidson diagonalization with overlap
     ethr =  1.07E-03,  avg # of iterations = 10.5

     total cpu time spent up to now is     1950.2 secs

     total energy              =    -326.74500105 Ry
     estimated scf accuracy    <       1.35127294 Ry

     iteration #  4     ecut=    70.00 Ry     beta= 0.70
     Davidson diagonalization with overlap
     ethr =  8.04E-04,  avg # of iterations =  8.0

     total cpu time spent up to now is     2456.6 secs

     total energy              =    -326.85960178 Ry
     estimated scf accuracy    <       2.06918978 Ry

     iteration #  5     ecut=    70.00 Ry     beta= 0.70
     Davidson diagonalization with overlap
     ethr =  8.04E-04,  avg # of iterations =  4.8

     total cpu time spent up to now is     2786.1 secs

     total energy              =    -326.94299232 Ry
     estimated scf accuracy    <       0.34809135 Ry

     iteration #  6     ecut=    70.00 Ry     beta= 0.70
     Davidson diagonalization with overlap
     ethr =  2.07E-04,  avg # of iterations =  6.5

     total cpu time spent up to now is     3221.0 secs

     total energy              =    -327.03010867 Ry
     estimated scf accuracy    <       0.08352519 Ry

     iteration #  7     ecut=    70.00 Ry     beta= 0.70
     Davidson diagonalization with overlap
     c_bands:  1 eigenvalues not converged
     c_bands:  1 eigenvalues not converged
     c_bands:  1 eigenvalues not converged
     ethr =  4.97E-05,  avg # of iterations =  9.9

     total cpu time spent up to now is     3830.2 secs

     total energy              =    -327.02803385 Ry
     estimated scf accuracy    <       0.08807603 Ry

     iteration #  8     ecut=    70.00 Ry     beta= 0.70
     Davidson diagonalization with overlap
     c_bands:  1 eigenvalues not converged
     ethr =  4.97E-05,  avg # of iterations =  4.1

     total cpu time spent up to now is     4117.5 secs

     total energy              =    -327.02952343 Ry
     estimated scf accuracy    <       0.02509083 Ry

     iteration #  9     ecut=    70.00 Ry     beta= 0.70
     Davidson diagonalization with overlap
     c_bands:  1 eigenvalues not converged
     c_bands:  1 eigenvalues not converged
     c_bands:  1 eigenvalues not converged
     c_bands:  1 eigenvalues not converged
     c_bands:  1 eigenvalues not converged
     c_bands:  1 eigenvalues not converged
     ethr =  1.49E-05,  avg # of iterations = 11.7

     total cpu time spent up to now is     4826.0 secs

     total energy              =    -327.03714288 Ry
     estimated scf accuracy    <       0.01056925 Ry

     iteration # 10     ecut=    70.00 Ry     beta= 0.70
     Davidson diagonalization with overlap
     c_bands:  1 eigenvalues not converged
     c_bands:  1 eigenvalues not converged
     c_bands:  1 eigenvalues not converged
     c_bands:  1 eigenvalues not converged
     ethr =  6.29E-06,  avg # of iterations =  8.8

     total cpu time spent up to now is     5369.9 secs

     total energy              =    -327.03678060 Ry
     estimated scf accuracy    <       0.01373560 Ry

     iteration # 11     ecut=    70.00 Ry     beta= 0.70
     Davidson diagonalization with overlap
     c_bands:  1 eigenvalues not converged
     c_bands:  1 eigenvalues not converged
     ethr =  6.29E-06,  avg # of iterations =  3.7

     total cpu time spent up to now is     5632.1 secs

     total energy              =    -327.03581582 Ry
     estimated scf accuracy    <       0.00855442 Ry

     iteration # 12     ecut=    70.00 Ry     beta= 0.70
     Davidson diagonalization with overlap
     ethr =  5.09E-06,  avg # of iterations =  7.9

     total cpu time spent up to now is     6123.0 secs

     total energy              =    -327.03663253 Ry
     estimated scf accuracy    <       0.00048570 Ry

     iteration # 13     ecut=    70.00 Ry     beta= 0.70
     Davidson diagonalization with overlap
     c_bands:  1 eigenvalues not converged
     c_bands:  1 eigenvalues not converged
     c_bands:  1 eigenvalues not converged
     c_bands:  1 eigenvalues not converged
     c_bands:  2 eigenvalues not converged
     c_bands:  1 eigenvalues not converged
     c_bands:  1 eigenvalues not converged
     c_bands:  1 eigenvalues not converged
     c_bands:  1 eigenvalues not converged
     c_bands:  2 eigenvalues not converged
     c_bands:  1 eigenvalues not converged
     c_bands:  1 eigenvalues not converged
     c_bands:  1 eigenvalues not converged
     c_bands:  1 eigenvalues not converged
     c_bands:  1 eigenvalues not converged
     c_bands:  1 eigenvalues not converged
     c_bands:  1 eigenvalues not converged
     c_bands:  1 eigenvalues not converged
     c_bands:  1 eigenvalues not converged
     c_bands:  1 eigenvalues not converged
     c_bands:  1 eigenvalues not converged
     c_bands:  1 eigenvalues not converged
     c_bands:  1 eigenvalues not converged
     c_bands:  1 eigenvalues not converged
     ethr =  2.89E-07,  avg # of iterations = 19.5

     total cpu time spent up to now is     7270.6 secs

     total energy              =    -327.03735349 Ry
     estimated scf accuracy    <       0.00861186 Ry

     iteration # 14     ecut=    70.00 Ry     beta= 0.70
     Davidson diagonalization with overlap
     c_bands:  1 eigenvalues not converged
     c_bands:  1 eigenvalues not converged
     c_bands:  1 eigenvalues not converged
     c_bands:  1 eigenvalues not converged
     c_bands:  1 eigenvalues not converged
     ethr =  2.89E-07,  avg # of iterations = 11.4

     total cpu time spent up to now is     7968.3 secs

     total energy              =    -327.03700896 Ry
     estimated scf accuracy    <       0.00412431 Ry

     iteration # 15     ecut=    70.00 Ry     beta= 0.70
     Davidson diagonalization with overlap
     c_bands:  1 eigenvalues not converged
     c_bands:  2 eigenvalues not converged
     c_bands:  1 eigenvalues not converged
     c_bands:  1 eigenvalues not converged
     c_bands:  1 eigenvalues not converged
     c_bands:  1 eigenvalues not converged
     ethr =  2.89E-07,  avg # of iterations = 14.0

     total cpu time spent up to now is     8796.2 secs

     total energy              =    -327.03729635 Ry
     estimated scf accuracy    <       0.00021669 Ry

     iteration # 16     ecut=    70.00 Ry     beta= 0.70
     Davidson diagonalization with overlap
     c_bands:  1 eigenvalues not converged
     c_bands:  1 eigenvalues not converged
     c_bands:  1 eigenvalues not converged
     ethr =  1.29E-07,  avg # of iterations =  7.3

     total cpu time spent up to now is     9254.7 secs

     total energy              =    -327.03730809 Ry
     estimated scf accuracy    <       0.00011519 Ry

     iteration # 17     ecut=    70.00 Ry     beta= 0.70
     Davidson diagonalization with overlap
     ethr =  6.86E-08,  avg # of iterations =  9.0

     total cpu time spent up to now is     9815.7 secs

     total energy              =    -327.03731571 Ry
     estimated scf accuracy    <       0.00002979 Ry

     iteration # 18     ecut=    70.00 Ry     beta= 0.70
     Davidson diagonalization with overlap
     c_bands:  1 eigenvalues not converged
     c_bands:  1 eigenvalues not converged
     c_bands:  1 eigenvalues not converged
     c_bands:  1 eigenvalues not converged
     c_bands:  1 eigenvalues not converged
     c_bands:  1 eigenvalues not converged
     c_bands:  1 eigenvalues not converged
     c_bands:  1 eigenvalues not converged
     ethr =  1.77E-08,  avg # of iterations = 15.6

     total cpu time spent up to now is    10730.4 secs

     total energy              =    -327.03732657 Ry
     estimated scf accuracy    <       0.00004550 Ry

     iteration # 19     ecut=    70.00 Ry     beta= 0.70
     Davidson diagonalization with overlap
     c_bands:  1 eigenvalues not converged
     c_bands:  1 eigenvalues not converged
     ethr =  1.77E-08,  avg # of iterations =  3.2

     total cpu time spent up to now is    10972.3 secs

     total energy              =    -327.03732219 Ry
     estimated scf accuracy    <       0.00002988 Ry

     iteration # 20     ecut=    70.00 Ry     beta= 0.70
     Davidson diagonalization with overlap
     c_bands:  1 eigenvalues not converged
     c_bands:  1 eigenvalues not converged
     c_bands:  1 eigenvalues not converged
     c_bands:  1 eigenvalues not converged
     ethr =  1.77E-08,  avg # of iterations = 12.9

     total cpu time spent up to now is    11754.3 secs

     total energy              =    -327.03732805 Ry
     estimated scf accuracy    <       0.00005269 Ry

     iteration # 21     ecut=    70.00 Ry     beta= 0.70
     Davidson diagonalization with overlap
     ethr =  1.77E-08,  avg # of iterations =  1.9

     total cpu time spent up to now is    11921.0 secs

     total energy              =    -327.03732480 Ry
     estimated scf accuracy    <       0.00004132 Ry

     iteration # 22     ecut=    70.00 Ry     beta= 0.70
     Davidson diagonalization with overlap
     c_bands:  1 eigenvalues not converged
     ethr =  1.77E-08,  avg # of iterations =  5.9

     total cpu time spent up to now is    12299.6 secs

     total energy              =    -327.03732643 Ry
     estimated scf accuracy    <       0.00001390 Ry

     iteration # 23     ecut=    70.00 Ry     beta= 0.70
     Davidson diagonalization with overlap
     ethr =  8.28E-09,  avg # of iterations =  3.1

     total cpu time spent up to now is    12529.5 secs

     total energy              =    -327.03732521 Ry
     estimated scf accuracy    <       0.00001014 Ry

     iteration # 24     ecut=    70.00 Ry     beta= 0.70
     Davidson diagonalization with overlap
     c_bands:  1 eigenvalues not converged
     ethr =  6.04E-09,  avg # of iterations =  8.2

     total cpu time spent up to now is    13045.5 secs

     total energy              =    -327.03732732 Ry
     estimated scf accuracy    <       0.00000518 Ry

     iteration # 25     ecut=    70.00 Ry     beta= 0.70
     Davidson diagonalization with overlap
     c_bands:  1 eigenvalues not converged
     c_bands:  1 eigenvalues not converged
     c_bands:  1 eigenvalues not converged
     c_bands:  1 eigenvalues not converged
     c_bands:  1 eigenvalues not converged
     c_bands:  1 eigenvalues not converged
     ethr =  3.08E-09,  avg # of iterations = 13.7

     total cpu time spent up to now is    13852.2 secs

     total energy              =    -327.03732720 Ry
     estimated scf accuracy    <       0.00001601 Ry

     iteration # 26     ecut=    70.00 Ry     beta= 0.70
     Davidson diagonalization with overlap
     c_bands:  1 eigenvalues not converged
     c_bands:  1 eigenvalues not converged
     ethr =  3.08E-09,  avg # of iterations =  5.3

     total cpu time spent up to now is    14198.0 secs

     total energy              =    -327.03732680 Ry
     estimated scf accuracy    <       0.00000912 Ry

     iteration # 27     ecut=    70.00 Ry     beta= 0.70
     Davidson diagonalization with overlap
     c_bands:  1 eigenvalues not converged
     ethr =  3.08E-09,  avg # of iterations =  8.4

     total cpu time spent up to now is    14712.5 secs

     total energy              =    -327.03732715 Ry
     estimated scf accuracy    <       0.00000158 Ry

     iteration # 28     ecut=    70.00 Ry     beta= 0.70
     Davidson diagonalization with overlap
     c_bands:  1 eigenvalues not converged
     c_bands:  1 eigenvalues not converged
     c_bands:  1 eigenvalues not converged
     c_bands:  1 eigenvalues not converged
     c_bands:  1 eigenvalues not converged
     ethr =  9.39E-10,  avg # of iterations = 12.2

     total cpu time spent up to now is    15449.8 secs

     End of self-consistent calculation

          k = 0.0833 0.0833 0.0833 ( 87340 PWs)   bands (ev):

    -8.6102  -7.7501  -7.7404  -7.7354  -7.1255  -7.0668  -6.9100  -6.7432
    -6.6830  -6.6107  -6.2979  -6.2820  -6.0247  -5.8338  -5.7949  -5.5687
    -5.4853  -5.2354  -4.7908  -4.6598  -4.5954  -4.5506  -4.4909  -4.4530
    -4.2868  -3.7835  -3.6871  -3.5443  -3.4444  -3.3001  -3.1991  -3.0893
    -3.0471  -2.9329  -2.7877  -2.2871  -2.1585  -2.0486  -1.5121  -1.4154
    -1.1917  -0.9011  -0.8332  -0.7739  -0.7510  -0.7329  -0.6016  -0.5679
    -0.4919  -0.4061  -0.2041  -0.0454   0.0127   0.0875   0.0927   0.2639
     0.3094   0.4134   0.5770   0.7006   0.7405   0.8269   0.8997   0.9249
     0.9612   0.9697   1.0955   1.1561   1.2367   1.2834   1.3998   1.5135
     1.5205   1.5793   1.6166   1.7395   1.8016   1.8372   1.9342   2.0641
     2.1132   2.1671   2.2500   2.2780

          k = 0.0833 0.0833 0.2500 ( 87298 PWs)   bands (ev):

    -8.6010  -7.7808  -7.7449  -7.7252  -7.1554  -7.0611  -6.9321  -6.7399
    -6.6805  -6.5473  -6.2810  -6.2557  -5.9950  -5.8429  -5.7945  -5.5790
    -5.4857  -5.3011  -4.7963  -4.6528  -4.5848  -4.5452  -4.4876  -4.4531
    -4.3317  -3.8188  -3.6573  -3.5451  -3.4605  -3.3500  -3.2159  -3.0773
    -3.0379  -2.8818  -2.6647  -2.3189  -2.1582  -2.0315  -1.5203  -1.4751
    -1.2245  -0.8992  -0.8413  -0.7571  -0.7571  -0.7114  -0.6146  -0.5466
    -0.5237  -0.3609  -0.2085  -0.0152  -0.0036   0.0507   0.0766   0.2332
     0.3101   0.3732   0.5225   0.6770   0.6835   0.7286   0.8724   0.9290
     0.9291   0.9932   1.1913   1.2764   1.2848   1.4064   1.4081   1.5452
     1.5475   1.6614   1.6853   1.8190   1.8330   1.8890   1.9789   2.0381
     2.1497   2.1676   2.1770   2.3576

          k = 0.0833 0.0833 0.4167 ( 87312 PWs)   bands (ev):

    -8.5914  -7.8188  -7.7397  -7.7142  -7.1851  -7.0559  -6.9535  -6.7366
    -6.6780  -6.4925  -6.2513  -6.2259  -5.9659  -5.8520  -5.7945  -5.5929
    -5.4862  -5.3762  -4.8019  -4.6462  -4.5735  -4.5418  -4.4808  -4.4577
    -4.3609  -3.8533  -3.6357  -3.5470  -3.4827  -3.3855  -3.2306  -3.0675
    -3.0193  -2.8383  -2.5373  -2.3518  -2.1574  -2.0162  -1.6350  -1.4305
    -1.2492  -0.9162  -0.8475  -0.7622  -0.7321  -0.6785  -0.6403  -0.5567
    -0.5277  -0.3350  -0.2124  -0.0315  -0.0131   0.0669   0.0890   0.1909
     0.3093   0.3265   0.4595   0.6178   0.6379   0.7006   0.8567   0.9364
     0.9407   1.0290   1.2463   1.2885   1.4100   1.4540   1.5035   1.5508
     1.6018   1.6632   1.7021   1.8559   1.9444   1.9571   2.0159   2.0805
     2.1547   2.1752   2.2724   2.2746

          k = 0.0833 0.2500 0.2500 ( 87283 PWs)   bands (ev):

    -8.5906  -7.7831  -7.7718  -7.7238  -7.1727  -7.0962  -6.9445  -6.6956
    -6.6207  -6.5477  -6.2809  -6.2502  -6.0000  -5.8127  -5.7958  -5.5374
    -5.4817  -5.2674  -4.8582  -4.7348  -4.6466  -4.5730  -4.5292  -4.4784
    -4.3048  -3.8222  -3.6055  -3.5836  -3.4203  -3.2788  -3.1121  -3.0863
    -2.9849  -2.8640  -2.6277  -2.3559  -2.2484  -2.0901  -1.5818  -1.4669
    -1.2895  -0.9106  -0.8500  -0.8063  -0.7610  -0.6570  -0.6384  -0.5521
    -0.4577  -0.2953  -0.2361  -0.0121  -0.0074   0.0528   0.1433   0.1916
     0.2868   0.4143   0.5420   0.6546   0.7289   0.7837   0.8415   0.9388
     0.9725   1.0376   1.1988   1.2471   1.2948   1.3690   1.4370   1.5536
     1.5956   1.6595   1.7273   1.8399   1.8649   1.9201   1.9761   2.0274
     2.1389   2.1780   2.2548   2.2840

          k = 0.0833 0.2500 0.4167 ( 87318 PWs)   bands (ev):

    -8.5810  -7.8100  -7.7760  -7.7146  -7.2012  -7.0927  -6.9661  -6.6922
    -6.6187  -6.4939  -6.2482  -6.2209  -5.9703  -5.8199  -5.7938  -5.5468
    -5.4900  -5.3496  -4.8592  -4.7328  -4.6469  -4.5711  -4.5181  -4.4741
    -4.3308  -3.8563  -3.5861  -3.5799  -3.4520  -3.2912  -3.1015  -3.0921
    -2.9720  -2.8246  -2.5117  -2.3908  -2.2646  -2.0816  -1.6265  -1.4971
    -1.3087  -0.9227  -0.8648  -0.8007  -0.7537  -0.6618  -0.5936  -0.5210
    -0.4986  -0.2698  -0.2430  -0.0438   0.0009   0.0987   0.1237   0.2049
     0.2733   0.3906   0.5122   0.6448   0.6737   0.8001   0.8517   0.8832
     0.9744   1.0577   1.2295   1.2693   1.3394   1.3941   1.4524   1.5433
     1.6593   1.6717   1.7417   1.8295   1.9082   1.9901   2.0279   2.0690
     2.1384   2.1918   2.2047   2.3161

          k = 0.0833 0.4167 0.4167 ( 87291 PWs)   bands (ev):

    -8.5699  -7.8183  -7.8007  -7.7051  -7.2175  -7.1293  -6.9748  -6.6667
    -6.5464  -6.4905  -6.2417  -6.2216  -5.9872  -5.7854  -5.7693  -5.5071
    -5.4928  -5.3292  -4.9716  -4.7698  -4.7051  -4.6215  -4.5345  -4.4502
    -4.3136  -3.8898  -3.6031  -3.5325  -3.4260  -3.2499  -3.1289  -2.9581
    -2.8729  -2.8023  -2.5099  -2.4042  -2.3677  -2.1414  -1.6984  -1.5447
    -1.3148  -0.9642  -0.8750  -0.8228  -0.7615  -0.6985  -0.5481  -0.4781
    -0.4174  -0.3032  -0.1626  -0.0984   0.0044   0.0591   0.1433   0.2718
     0.3714   0.3995   0.5157   0.6592   0.7171   0.8096   0.8366   0.9390
     1.0530   1.1099   1.1660   1.2594   1.3066   1.3716   1.4373   1.5139
     1.5705   1.6120   1.7565   1.8161   1.8910   1.9503   2.0620   2.1142
     2.1436   2.1956   2.2345   2.3248

          k = 0.2500 0.2500 0.2500 ( 87317 PWs)   bands (ev):

    -8.5805  -7.7788  -7.7635  -7.7621  -7.1907  -7.1287  -6.9587  -6.6250
    -6.5878  -6.5502  -6.2866  -6.2406  -5.9886  -5.7962  -5.7804  -5.4970
    -5.4835  -5.2422  -4.8790  -4.8119  -4.7043  -4.6202  -4.5884  -4.5163
    -4.2966  -3.7687  -3.5748  -3.5665  -3.4240  -3.1426  -3.1378  -3.0298
    -2.9818  -2.8442  -2.6049  -2.4066  -2.2989  -2.1535  -1.5754  -1.5063
    -1.3577  -0.9087  -0.8795  -0.7864  -0.7614  -0.6513  -0.6201  -0.5561
    -0.3793  -0.2832  -0.1839  -0.0597  -0.0025   0.0633   0.2002   0.2065
     0.2950   0.3830   0.5421   0.6840   0.6873   0.7852   0.8074   0.9413
     1.0340   1.0519   1.1800   1.2198   1.3050   1.3695   1.4642   1.5997
     1.6181   1.7062   1.7348   1.7744   1.8661   1.9250   1.9567   2.0377
     2.0699   2.1674   2.1848   2.2789

          k = 0.2500 0.2500 0.4167 ( 87259 PWs)   bands (ev):

    -8.5708  -7.8014  -7.7735  -7.7518  -7.2153  -7.1296  -6.9807  -6.6216
    -6.5856  -6.4987  -6.2508  -6.2101  -5.9524  -5.7983  -5.7883  -5.5073
    -5.4931  -5.3292  -4.8802  -4.8053  -4.7118  -4.6155  -4.5812  -4.5124
    -4.3185  -3.8010  -3.5670  -3.5531  -3.4453  -3.1449  -3.1238  -3.0450
    -2.9628  -2.8054  -2.5237  -2.4061  -2.3450  -2.1487  -1.5845  -1.5342
    -1.4148  -0.9184  -0.8691  -0.7890  -0.7762  -0.6389  -0.5719  -0.5142
    -0.4317  -0.3132  -0.1489  -0.1136   0.0344   0.1015   0.2006   0.2421
     0.2995   0.3873   0.5373   0.6751   0.7274   0.7836   0.8212   0.8832
     0.9712   1.0597   1.1922   1.2448   1.3296   1.3433   1.4676   1.5832
     1.6376   1.7034   1.7178   1.8364   1.8538   1.9533   1.9932   2.0279
     2.0555   2.1451   2.2254   2.3230

          k = 0.2500 0.4167 0.4167 ( 87284 PWs)   bands (ev):

    -8.5599  -7.8075  -7.7924  -7.7484  -7.2275  -7.1696  -6.9912  -6.5856
    -6.5240  -6.4977  -6.2480  -6.2036  -5.9572  -5.7755  -5.7444  -5.5052
    -5.4810  -5.3156  -4.9653  -4.8427  -4.7672  -4.6524  -4.5783  -4.5247
    -4.3282  -3.7933  -3.5929  -3.5323  -3.3913  -3.1606  -3.0836  -2.9494
    -2.8897  -2.7800  -2.5814  -2.4604  -2.3180  -2.2054  -1.6611  -1.5434
    -1.4460  -0.9579  -0.8513  -0.8236  -0.7624  -0.6509  -0.5119  -0.4933
    -0.3778  -0.3206  -0.1444  -0.0815   0.0251   0.1156   0.1951   0.2923
     0.3753   0.3970   0.5459   0.6583   0.7330   0.7788   0.8377   0.9309
     1.0083   1.0543   1.1508   1.2269   1.2814   1.3056   1.5046   1.5143
     1.5594   1.6088   1.7601   1.7894   1.8304   1.9335   2.0030   2.0456
     2.0980   2.1773   2.2326   2.2843

          k = 0.4167 0.4167 0.4167 ( 87182 PWs)   bands (ev):

    -8.5493  -7.8041  -7.7839  -7.7803  -7.2373  -7.2103  -7.0044  -6.5175
    -6.5021  -6.4916  -6.2494  -6.1912  -5.9443  -5.7472  -5.7063  -5.5117
    -5.4759  -5.3040  -4.9659  -4.9422  -4.8205  -4.6874  -4.6085  -4.5306
    -4.3554  -3.7327  -3.5695  -3.5682  -3.3115  -3.2029  -2.9803  -2.9296
    -2.8665  -2.7613  -2.6228  -2.5207  -2.2686  -2.2630  -1.6549  -1.5792
    -1.5257  -0.9760  -0.8563  -0.7880  -0.7331  -0.6220  -0.5028  -0.4624
    -0.3792  -0.2756  -0.1650  -0.0600  -0.0098   0.1667   0.2163   0.2728
     0.3730   0.5202   0.6285   0.6318   0.7073   0.8153   0.8441   0.8855
     0.9971   1.0817   1.1330   1.1649   1.2473   1.3521   1.3546   1.3799
     1.4768   1.6440   1.7186   1.7895   1.8506   1.8941   1.9714   2.0767
     2.0891   2.1519   2.1825   2.2768

          k = 0.0833-0.0833 0.0833 ( 87340 PWs)   bands (ev):

    -8.6102  -7.7510  -7.7404  -7.7345  -7.1222  -7.0704  -6.9114  -6.7405
    -6.6835  -6.6111  -6.2889  -6.2886  -6.0289  -5.8326  -5.7844  -5.5864
    -5.4846  -5.2367  -4.7841  -4.6560  -4.6229  -4.5100  -4.4871  -4.4368
    -4.3000  -3.8115  -3.7025  -3.5868  -3.3788  -3.3015  -3.1988  -3.0923
    -3.0473  -2.9228  -2.8076  -2.2882  -2.1358  -2.0413  -1.5246  -1.4119
    -1.1979  -0.8816  -0.8350  -0.7806  -0.7473  -0.7446  -0.5672  -0.5477
    -0.5459  -0.4196  -0.1962  -0.0372   0.0069   0.0894   0.1049   0.1857
     0.3053   0.4572   0.5921   0.6847   0.8173   0.8575   0.8842   0.9182
     0.9587   0.9978   1.0507   1.1153   1.1898   1.2714   1.4099   1.4779
     1.5565   1.5954   1.6202   1.7490   1.7636   1.8713   1.9550   2.0792
     2.0814   2.1506   2.2286   2.2803

          k = 0.0833-0.0833 0.2500 ( 87298 PWs)   bands (ev):

    -8.6010  -7.7809  -7.7459  -7.7243  -7.1532  -7.0639  -6.9328  -6.7377
    -6.6810  -6.5479  -6.2775  -6.2565  -6.0002  -5.8418  -5.7841  -5.5925
    -5.4880  -5.3022  -4.7898  -4.6534  -4.6103  -4.4965  -4.4880  -4.4314
    -4.3517  -3.8452  -3.6746  -3.5883  -3.3844  -3.3656  -3.2159  -3.0765
    -3.0362  -2.8762  -2.6824  -2.3239  -2.1271  -2.0264  -1.5374  -1.4686
    -1.2216  -0.9019  -0.8372  -0.7878  -0.7264  -0.7147  -0.6055  -0.5564
    -0.5214  -0.3779  -0.2038  -0.0060   0.0020   0.0534   0.0741   0.2060
     0.2729   0.3949   0.5190   0.6583   0.7293   0.7698   0.8456   0.9382
     0.9626   1.0341   1.1363   1.2419   1.2547   1.3038   1.4759   1.4977
     1.6327   1.6356   1.7459   1.7752   1.8234   1.9187   1.9656   2.0421
     2.1463   2.1828   2.2201   2.2936

          k = 0.2500-0.0833 0.0833 ( 87298 PWs)   bands (ev):

    -8.5998  -7.7904  -7.7319  -7.7311  -7.1367  -7.1081  -6.9232  -6.6965
    -6.6228  -6.6114  -6.2900  -6.2819  -6.0382  -5.7993  -5.7829  -5.5671
    -5.4707  -5.1981  -4.8500  -4.7334  -4.6600  -4.5383  -4.5097  -4.4709
    -4.2833  -3.8472  -3.6749  -3.5995  -3.3204  -3.2627  -3.1273  -3.0661
    -3.0025  -2.8888  -2.7821  -2.3143  -2.1928  -2.0820  -1.6062  -1.3922
    -1.2710  -0.8917  -0.8410  -0.8020  -0.7549  -0.7141  -0.6191  -0.5778
    -0.4550  -0.3913  -0.1815  -0.0028   0.0321   0.0491   0.0776   0.1720
     0.3006   0.4553   0.5763   0.6175   0.7858   0.8780   0.9235   0.9607
     0.9852   1.0313   1.0914   1.1323   1.2431   1.3336   1.4470   1.5251
     1.5815   1.6298   1.7055   1.7117   1.8093   1.8927   1.9665   2.0748
     2.1046   2.1859   2.2728   2.3479

          k =-0.2500-0.0833-0.0833 ( 87298 PWs)   bands (ev):

    -8.5998  -7.7899  -7.7322  -7.7312  -7.1458  -7.0984  -6.9220  -6.6991
    -6.6232  -6.6102  -6.3004  -6.2757  -6.0308  -5.8076  -5.7952  -5.5305
    -5.4745  -5.1950  -4.8572  -4.7363  -4.6481  -4.5715  -4.5404  -4.4841
    -4.2677  -3.7872  -3.6413  -3.5834  -3.3848  -3.2625  -3.1236  -3.0759
    -2.9948  -2.9078  -2.7342  -2.3319  -2.2247  -2.1001  -1.5930  -1.3969
    -1.2461  -0.9178  -0.8530  -0.7857  -0.7523  -0.6993  -0.6432  -0.5950
    -0.4186  -0.3511  -0.2149  -0.0141   0.0136   0.0484   0.1666   0.1853
     0.2804   0.4286   0.5541   0.6363   0.7600   0.8280   0.8730   0.9406
     1.0080   1.0442   1.1465   1.1908   1.2520   1.3852   1.4467   1.5001
     1.5666   1.6450   1.7216   1.7720   1.8051   1.9020   1.9681   1.9975
     2.0680   2.1630   2.3167   2.3345

          k = 0.0833-0.0833 0.4167 ( 87312 PWs)   bands (ev):

    -8.5914  -7.8189  -7.7406  -7.7132  -7.1834  -7.0589  -6.9534  -6.7347
    -6.6785  -6.4931  -6.2490  -6.2252  -5.9725  -5.8510  -5.7840  -5.6015
    -5.4923  -5.3769  -4.7956  -4.6506  -4.5984  -4.4871  -4.4817  -4.4268
    -4.3924  -3.8784  -3.6540  -3.5907  -3.4208  -3.3894  -3.2313  -3.0649
    -3.0160  -2.8353  -2.5560  -2.3570  -2.1204  -2.0136  -1.6445  -1.4314
    -1.2405  -0.9239  -0.8377  -0.8011  -0.7137  -0.6691  -0.6464  -0.5753
    -0.4977  -0.3555  -0.2139  -0.0142   0.0233   0.0353   0.0997   0.2087
     0.2330   0.3318   0.4549   0.5598   0.6964   0.7344   0.8562   0.9608
     0.9694   1.0692   1.1948   1.2793   1.3281   1.3987   1.4573   1.5521
     1.6623   1.6855   1.7444   1.9004   1.9421   1.9447   1.9763   2.0850
     2.1800   2.1882   2.2610   2.3329

          k = 0.4167-0.0833 0.0833 ( 87312 PWs)   bands (ev):

    -8.5888  -7.8328  -7.7225  -7.7211  -7.1570  -7.1403  -6.9294  -6.6749
    -6.6122  -6.5409  -6.2866  -6.2860  -6.0482  -5.7919  -5.7602  -5.5126
    -5.4611  -5.1589  -4.9807  -4.7595  -4.6894  -4.6103  -4.5493  -4.4666
    -4.2665  -3.8504  -3.6321  -3.5936  -3.3362  -3.2319  -3.1612  -2.9850
    -2.8745  -2.8611  -2.7125  -2.3255  -2.3021  -2.1369  -1.7224  -1.3398
    -1.3154  -0.9321  -0.8736  -0.7828  -0.7759  -0.6902  -0.6552  -0.6062
    -0.3914  -0.3149  -0.1855  -0.0377   0.0180   0.0474   0.1204   0.2124
     0.3129   0.3805   0.4884   0.6465   0.7454   0.8395   0.9010   0.9903
     1.0704   1.1159   1.1708   1.2417   1.3042   1.3647   1.4672   1.5166
     1.5598   1.6486   1.7084   1.7916   1.8769   1.9232   1.9845   2.0622
     2.1279   2.2276   2.2980   2.3693

          k =-0.4167-0.0833-0.0833 ( 87312 PWs)   bands (ev):

    -8.5888  -7.8327  -7.7224  -7.7212  -7.1637  -7.1332  -6.9292  -6.6755
    -6.6118  -6.5414  -6.2955  -6.2791  -6.0449  -5.8015  -5.7590  -5.4875
    -5.4702  -5.1578  -4.9822  -4.7643  -4.6807  -4.6318  -4.5576  -4.4744
    -4.2612  -3.8196  -3.6083  -3.6017  -3.3590  -3.2313  -3.1583  -2.9947
    -2.8822  -2.8550  -2.6791  -2.3765  -2.2850  -2.1488  -1.7194  -1.3493
    -1.2903  -0.9398  -0.8733  -0.8057  -0.7552  -0.6838  -0.6672  -0.6087
    -0.3828  -0.2660  -0.2245  -0.0487   0.0239   0.0589   0.1218   0.2140
     0.3131   0.4081   0.4303   0.6925   0.7540   0.7968   0.8932   0.9707
     1.0731   1.1051   1.1924   1.2420   1.3205   1.3943   1.4316   1.5470
     1.6015   1.6657   1.7461   1.8050   1.8423   1.9229   1.9684   2.0157
     2.0861   2.1961   2.2868   2.3420

          k = 0.2500-0.0833 0.2500 ( 87283 PWs)   bands (ev):

    -8.5906  -7.7837  -7.7720  -7.7231  -7.1674  -7.1029  -6.9447  -6.6933
    -6.6204  -6.5490  -6.2748  -6.2514  -6.0091  -5.8080  -5.7802  -5.5682
    -5.4816  -5.2705  -4.8508  -4.7349  -4.6558  -4.5376  -4.5030  -4.4602
    -4.3233  -3.8781  -3.6510  -3.5938  -3.3667  -3.2763  -3.1093  -3.0800
    -2.9855  -2.8527  -2.6726  -2.3563  -2.1888  -2.0774  -1.5939  -1.4741
    -1.2891  -0.9052  -0.8653  -0.8082  -0.7507  -0.6675  -0.6274  -0.5350
    -0.4818  -0.3256  -0.2078  -0.0057   0.0117   0.0592   0.0724   0.1728
     0.2979   0.4354   0.5490   0.6380   0.7468   0.8084   0.8846   0.9367
     0.9950   1.0563   1.1422   1.1889   1.2714   1.3077   1.4775   1.5202
     1.6054   1.6754   1.7289   1.7713   1.8799   1.9295   2.0212   2.0588
     2.1168   2.2144   2.3040   2.3261

          k = 0.2500-0.2500 0.0833 ( 87283 PWs)   bands (ev):

    -8.5897  -7.7876  -7.7690  -7.7226  -7.1515  -7.1438  -6.9365  -6.6235
    -6.6134  -6.5916  -6.2902  -6.2772  -6.0378  -5.7682  -5.7549  -5.5765
    -5.4602  -5.1708  -4.8569  -4.8305  -4.6993  -4.5596  -4.5488  -4.4954
    -4.2953  -3.8482  -3.6769  -3.5889  -3.2729  -3.1549  -3.1358  -3.0192
    -2.9996  -2.8436  -2.7944  -2.3698  -2.1738  -2.1186  -1.6459  -1.3829
    -1.3763  -0.9072  -0.8523  -0.8016  -0.7585  -0.6863  -0.6126  -0.5589
    -0.4448  -0.3181  -0.1331  -0.0408  -0.0074   0.0626   0.0819   0.1841
     0.3402   0.4161   0.5339   0.5832   0.7355   0.8752   0.9031   0.9493
     1.0188   1.0190   1.1380   1.2077   1.2843   1.3279   1.4727   1.5332
     1.5882   1.6893   1.7038   1.7277   1.7687   1.9045   1.9647   2.0833
     2.1107   2.2889   2.3604   2.3762

          k =-0.2500-0.2500-0.0833 ( 87283 PWs)   bands (ev):

    -8.5897  -7.7840  -7.7726  -7.7223  -7.1730  -7.1208  -6.9358  -6.6285
    -6.6123  -6.5900  -6.3071  -6.2682  -6.0244  -5.7948  -5.7726  -5.4888
    -5.4750  -5.1656  -4.8774  -4.8182  -4.6974  -4.6232  -4.5959  -4.5207
    -4.2648  -3.7345  -3.6115  -3.5679  -3.3965  -3.1481  -3.1361  -3.0181
    -2.9955  -2.8881  -2.6894  -2.3941  -2.2531  -2.1597  -1.6109  -1.4579
    -1.2656  -0.9253  -0.8981  -0.7477  -0.7473  -0.6822  -0.6675  -0.5932
    -0.3249  -0.2713  -0.2251  -0.0109  -0.0100   0.0389   0.1822   0.1830
     0.2836   0.3791   0.5119   0.6751   0.6945   0.7825   0.8280   0.9473
     1.0484   1.1018   1.1634   1.2249   1.3035   1.3754   1.4722   1.5613
     1.6204   1.6878   1.7628   1.7873   1.8435   1.8887   1.8953   1.9953
     2.1173   2.1269   2.2069   2.3440

          k = 0.2500-0.0833 0.4167 ( 87318 PWs)   bands (ev):

    -8.5810  -7.8101  -7.7768  -7.7138  -7.1974  -7.0987  -6.9652  -6.6900
    -6.6184  -6.4953  -6.2442  -6.2195  -5.9814  -5.8165  -5.7771  -5.5686
    -5.4962  -5.3530  -4.8516  -4.7356  -4.6532  -4.5334  -4.4978  -4.4488
    -4.3532  -3.9091  -3.6400  -3.5838  -3.4099  -3.2849  -3.0960  -3.0880
    -2.9662  -2.8194  -2.5577  -2.3994  -2.1860  -2.0746  -1.6408  -1.5017
    -1.2963  -0.9269  -0.8804  -0.8177  -0.7381  -0.6686  -0.5946  -0.5356
    -0.4692  -0.2898  -0.2415   0.0074   0.0223   0.0625   0.0969   0.1581
     0.2932   0.3963   0.5239   0.6001   0.6632   0.8188   0.8875   0.9209
     1.0265   1.0806   1.2052   1.2232   1.2645   1.3498   1.4202   1.5351
     1.6455   1.6839   1.7405   1.8475   1.9198   2.0031   2.0336   2.1089
     2.1605   2.2139   2.2762   2.3129

          k = 0.4167-0.2500 0.0833 ( 87318 PWs)   bands (ev):

    -8.5789  -7.8218  -7.7654  -7.7132  -7.1924  -7.1536  -6.9455  -6.6167
    -6.5904  -6.5199  -6.2969  -6.2737  -6.0370  -5.7579  -5.7265  -5.5300
    -5.4522  -5.1414  -4.9734  -4.8468  -4.7389  -4.6417  -4.5593  -4.5262
    -4.2971  -3.7854  -3.6485  -3.5795  -3.2764  -3.1929  -3.0868  -3.0011
    -2.8789  -2.8307  -2.7471  -2.3928  -2.2316  -2.1793  -1.7209  -1.4497
    -1.3271  -0.9471  -0.8528  -0.7975  -0.7605  -0.6727  -0.6399  -0.5707
    -0.3622  -0.2308  -0.1272  -0.0398  -0.0166   0.0501   0.1242   0.2202
     0.3332   0.3731   0.4595   0.5675   0.6851   0.8134   0.8742   0.9528
     1.0278   1.0603   1.1995   1.2761   1.3510   1.4041   1.4396   1.5099
     1.5986   1.6728   1.7193   1.8049   1.8497   1.9092   1.9569   2.1196
     2.1659   2.2436   2.2908   2.3276

          k =-0.4167-0.2500-0.0833 ( 87318 PWs)   bands (ev):

    -8.5789  -7.8213  -7.7659  -7.7130  -7.1988  -7.1465  -6.9455  -6.6154
    -6.5920  -6.5205  -6.3052  -6.2690  -6.0311  -5.7762  -5.7296  -5.4786
    -5.4649  -5.1400  -4.9764  -4.8467  -4.7443  -4.6620  -4.5888  -4.5375
    -4.2811  -3.7269  -3.6154  -3.5810  -3.3377  -3.1883  -3.0686  -3.0170
    -2.8697  -2.8537  -2.6951  -2.3946  -2.2796  -2.2059  -1.7093  -1.4711
    -1.2801  -0.9438  -0.8813  -0.7897  -0.7471  -0.6768  -0.6537  -0.5823
    -0.3095  -0.2021  -0.1498  -0.0577  -0.0107   0.0549   0.1134   0.2088
     0.3368   0.3834   0.4300   0.6196   0.6799   0.7648   0.8290   0.9984
     1.0447   1.0820   1.2239   1.2256   1.3435   1.3832   1.4832   1.5919
     1.6069   1.6721   1.7595   1.8253   1.8591   1.9258   1.9524   2.0459
     2.1140   2.1314   2.1822   2.3810

          k =-0.0833 0.4167 0.2500 ( 87318 PWs)   bands (ev):

    -8.5796  -7.8258  -7.7625  -7.7137  -7.1859  -7.1365  -6.9523  -6.6704
    -6.5582  -6.5321  -6.2721  -6.2532  -6.0190  -5.7823  -5.7681  -5.5185
    -5.4736  -5.2398  -4.9757  -4.7633  -4.6972  -4.6094  -4.5383  -4.4535
    -4.2969  -3.8835  -3.6179  -3.5694  -3.3739  -3.2421  -3.1444  -2.9696
    -2.8696  -2.8337  -2.6285  -2.3741  -2.3058  -2.1364  -1.7093  -1.4450
    -1.3198  -0.9442  -0.8869  -0.8040  -0.7621  -0.6901  -0.6100  -0.5330
    -0.3997  -0.2759  -0.2015  -0.0671  -0.0113   0.0403   0.1552   0.2042
     0.3531   0.4187   0.5161   0.6595   0.7302   0.8132   0.8946   0.9372
     1.0451   1.1387   1.1702   1.2406   1.2865   1.3320   1.4552   1.5161
     1.5836   1.6294   1.6852   1.8089   1.8996   1.9980   2.0244   2.0808
     2.1390   2.2291   2.2873   2.3470

          k =-0.0833-0.4167-0.2500 ( 87318 PWs)   bands (ev):

    -8.5796  -7.8256  -7.7624  -7.7139  -7.1892  -7.1326  -6.9524  -6.6710
    -6.5585  -6.5318  -6.2755  -6.2521  -6.0152  -5.7932  -5.7658  -5.4961
    -5.4808  -5.2384  -4.9773  -4.7670  -4.6928  -4.6274  -4.5457  -4.4625
    -4.2918  -3.8547  -3.6030  -3.5644  -3.3943  -3.2415  -3.1435  -2.9812
    -2.8652  -2.8373  -2.5938  -2.3908  -2.3299  -2.1447  -1.7083  -1.4340
    -1.3211  -0.9495  -0.8709  -0.8114  -0.7677  -0.6894  -0.6079  -0.5399
    -0.3859  -0.2602  -0.2205  -0.0746  -0.0099   0.0483   0.1682   0.2195
     0.3451   0.4075   0.4862   0.6929   0.7491   0.8039   0.8259   0.9572
     1.0684   1.1392   1.1638   1.2544   1.2902   1.3480   1.4294   1.5326
     1.6228   1.6469   1.7280   1.8035   1.8630   1.9209   2.0475   2.0778
     2.1264   2.2091   2.2601   2.3394

          k = 0.4167-0.0833 0.4167 ( 87291 PWs)   bands (ev):

    -8.5699  -7.8185  -7.8008  -7.7048  -7.2153  -7.1324  -6.9743  -6.6662
    -6.5457  -6.4913  -6.2399  -6.2208  -5.9916  -5.7759  -5.7702  -5.5248
    -5.4893  -5.3311  -4.9700  -4.7672  -4.7061  -4.6058  -4.5284  -4.4396
    -4.3188  -3.9170  -3.6161  -3.5420  -3.4087  -3.2498  -3.1287  -2.9450
    -2.8776  -2.8011  -2.5393  -2.4260  -2.3052  -2.1366  -1.6981  -1.5542
    -1.3101  -0.9601  -0.8975  -0.8180  -0.7545  -0.6999  -0.5521  -0.4686
    -0.4294  -0.2927  -0.1824  -0.0508  -0.0100   0.0419   0.1367   0.2308
     0.3868   0.4316   0.5360   0.6554   0.6990   0.7816   0.8627   0.9360
     1.0411   1.1207   1.1871   1.2662   1.2872   1.3780   1.4148   1.4944
     1.5351   1.6354   1.6770   1.8689   1.9141   1.9682   2.0751   2.1192
     2.1516   2.2348   2.2442   2.3296

          k = 0.4167-0.4167 0.0833 ( 87291 PWs)   bands (ev):

    -8.5684  -7.8156  -7.8001  -7.7042  -7.2316  -7.1635  -6.9579  -6.6176
    -6.5125  -6.4959  -6.3045  -6.2680  -6.0315  -5.7252  -5.6905  -5.5118
    -5.4523  -5.1226  -4.9700  -4.9613  -4.7881  -4.6939  -4.6102  -4.5153
    -4.3246  -3.6965  -3.6420  -3.5716  -3.2451  -3.1966  -3.0969  -2.9386
    -2.8460  -2.7895  -2.7637  -2.4167  -2.2461  -2.2204  -1.7381  -1.5665
    -1.2890  -0.9785  -0.8105  -0.7590  -0.7433  -0.6764  -0.6567  -0.5940
    -0.2918  -0.1777  -0.1158  -0.0335  -0.0189   0.1373   0.1404   0.2134
     0.3183   0.3511   0.4156   0.5219   0.6792   0.7130   0.8663   0.8868
     1.0042   1.1277   1.1850   1.2803   1.2940   1.3886   1.4844   1.5325
     1.6603   1.6983   1.7501   1.7922   1.8140   1.9865   2.0207   2.0557
     2.1364   2.1457   2.2215   2.3624

          k =-0.4167-0.4167-0.0833 ( 87291 PWs)   bands (ev):

    -8.5684  -7.8148  -7.8010  -7.7041  -7.2335  -7.1613  -6.9580  -6.6170
    -6.5138  -6.4955  -6.3084  -6.2658  -6.0289  -5.7356  -5.6934  -5.4756
    -5.4650  -5.1225  -4.9751  -4.9571  -4.7966  -4.6975  -4.6167  -4.5331
    -4.3132  -3.6643  -3.6255  -3.5744  -3.2635  -3.2314  -3.0682  -2.9376
    -2.8431  -2.8188  -2.7287  -2.4027  -2.2644  -2.2505  -1.7293  -1.5778
    -1.2679  -0.9761  -0.8041  -0.7866  -0.7171  -0.6816  -0.6744  -0.5915
    -0.2662  -0.1555  -0.1172  -0.0442  -0.0244   0.1048   0.1363   0.2278
     0.3100   0.3331   0.4668   0.5293   0.6340   0.7053   0.8207   0.9596
     1.0807   1.1066   1.1895   1.1948   1.3138   1.4084   1.4282   1.6268
     1.6419   1.6914   1.7803   1.7816   1.8794   1.9524   1.9825   2.0666
     2.0933   2.1397   2.1915   2.3471

          k = 0.2500-0.2500 0.2500 ( 87317 PWs)   bands (ev):

    -8.5804  -7.7824  -7.7633  -7.7589  -7.1747  -7.1471  -6.9579  -6.6195
    -6.5892  -6.5529  -6.2762  -6.2418  -6.0053  -5.7748  -5.7583  -5.5738
    -5.4743  -5.2479  -4.8582  -4.8279  -4.7007  -4.5578  -4.5404  -4.4924
    -4.3277  -3.8741  -3.6619  -3.5772  -3.3194  -3.1412  -3.1356  -3.0317
    -2.9690  -2.8196  -2.6998  -2.4158  -2.1699  -2.1247  -1.6154  -1.4797
    -1.3860  -0.9068  -0.8909  -0.8233  -0.7411  -0.6388  -0.5828  -0.5553
    -0.4613  -0.2315  -0.1798  -0.0896  -0.0145   0.0918   0.1233   0.1785
     0.3294   0.4389   0.5556   0.6156   0.6977   0.8321   0.9272   0.9420
     1.0051   1.0126   1.1544   1.2112   1.2187   1.3109   1.4572   1.5284
     1.6438   1.7254   1.7346   1.7990   1.8094   1.9117   1.9634   2.0173
     2.1076   2.2921   2.3158   2.3852

          k = 0.2500-0.2500 0.4167 ( 87259 PWs)   bands (ev):

    -8.5707  -7.8016  -7.7770  -7.7481  -7.2049  -7.1436  -6.9785  -6.6166
    -6.5868  -6.5015  -6.2436  -6.2072  -5.9737  -5.7819  -5.7618  -5.5675
    -5.4937  -5.3361  -4.8598  -4.8245  -4.7035  -4.5518  -4.5324  -4.4920
    -4.3494  -3.9003  -3.6572  -3.5631  -3.3602  -3.1419  -3.1186  -3.0465
    -2.9379  -2.7953  -2.5991  -2.4615  -2.1675  -2.1329  -1.6321  -1.5254
    -1.3935  -0.9272  -0.9064  -0.8439  -0.7269  -0.6003  -0.5843  -0.5460
    -0.4375  -0.2374  -0.2241  -0.0441  -0.0085   0.1210   0.1713   0.1741
     0.3097   0.4255   0.5596   0.6431   0.6502   0.7977   0.9018   0.9719
     0.9933   1.0315   1.1950   1.2079   1.2970   1.3049   1.3318   1.5102
     1.6132   1.7587   1.7679   1.7863   1.8408   1.9914   2.0214   2.0363
     2.1170   2.2048   2.2975   2.3940

          k = 0.4167-0.2500 0.2500 ( 87259 PWs)   bands (ev):

    -8.5696  -7.8151  -7.7574  -7.7537  -7.1967  -7.1757  -6.9682  -6.5884
    -6.5560  -6.5170  -6.2802  -6.2380  -6.0015  -5.7578  -5.7337  -5.5343
    -5.4658  -5.2242  -4.9681  -4.8462  -4.7481  -4.6351  -4.5572  -4.5198
    -4.3250  -3.8128  -3.6343  -3.5618  -3.3108  -3.1762  -3.0915  -2.9641
    -2.8852  -2.8017  -2.6846  -2.4431  -2.2349  -2.1858  -1.6930  -1.4587
    -1.4320  -0.9497  -0.8776  -0.8084  -0.7485  -0.6489  -0.5730  -0.5443
    -0.3948  -0.1939  -0.1380  -0.1053  -0.0195   0.0878   0.1662   0.2236
     0.3516   0.4281   0.5197   0.5791   0.6961   0.8206   0.8679   0.9378
     1.0011   1.0617   1.1642   1.2436   1.2971   1.3778   1.4245   1.4957
     1.6238   1.6894   1.7252   1.7962   1.8559   1.8863   1.9684   2.0728
     2.1222   2.2199   2.2814   2.3189

          k =-0.4167-0.2500-0.2500 ( 87259 PWs)   bands (ev):

    -8.5697  -7.8145  -7.7579  -7.7536  -7.2071  -7.1642  -6.9688  -6.5895
    -6.5550  -6.5173  -6.2852  -6.2372  -5.9941  -5.7762  -5.7368  -5.4907
    -5.4727  -5.2222  -4.9713  -4.8447  -4.7555  -4.6574  -4.5841  -4.5308
    -4.3094  -3.7610  -3.5974  -3.5573  -3.3644  -3.1756  -3.0782  -2.9856
    -2.8779  -2.8147  -2.6380  -2.4249  -2.3072  -2.2052  -1.6851  -1.4801
    -1.3964  -0.9498  -0.8525  -0.8033  -0.7670  -0.6635  -0.5813  -0.5425
    -0.3431  -0.2588  -0.0990  -0.0854  -0.0265   0.0693   0.1736   0.2431
     0.3560   0.3901   0.5091   0.6124   0.7054   0.7810   0.8244   0.9895
     1.0120   1.0709   1.1734   1.2347   1.2972   1.3629   1.5023   1.5480
     1.5979   1.6544   1.7388   1.8065   1.8632   1.8959   1.9781   2.0503
     2.1140   2.1569   2.1978   2.3033

          k = 0.4167-0.2500 0.4167 ( 87284 PWs)   bands (ev):

    -8.5599  -7.8082  -7.7925  -7.7476  -7.2202  -7.1784  -6.9901  -6.5844
    -6.5234  -6.4992  -6.2448  -6.2022  -5.9663  -5.7570  -5.7412  -5.5381
    -5.4821  -5.3184  -4.9623  -4.8456  -4.7578  -4.6287  -4.5528  -4.5150
    -4.3429  -3.8406  -3.6300  -3.5428  -3.3436  -3.1595  -3.0937  -2.9231
    -2.8973  -2.7758  -2.6105  -2.4948  -2.2366  -2.1921  -1.6671  -1.5574
    -1.4362  -0.9558  -0.9025  -0.8270  -0.7333  -0.6357  -0.5120  -0.4979
    -0.4220  -0.2543  -0.1770  -0.0565  -0.0008   0.1455   0.1699   0.2542
     0.3727   0.4224   0.5771   0.6201   0.7307   0.8262   0.8663   0.8959
     0.9636   1.0498   1.1578   1.2327   1.2950   1.3221   1.3973   1.5162
     1.5658   1.6102   1.6917   1.8358   1.8694   1.9082   2.0124   2.0448
     2.1349   2.2080   2.2512   2.3314

          k = 0.4167-0.4167 0.2500 ( 87284 PWs)   bands (ev):

    -8.5591  -7.8104  -7.7901  -7.7453  -7.2273  -7.1945  -6.9813  -6.5593
    -6.5091  -6.4939  -6.2864  -6.2291  -5.9908  -5.7306  -5.6968  -5.5200
    -5.4652  -5.2079  -4.9657  -4.9549  -4.8001  -4.6850  -4.6074  -4.5153
    -4.3509  -3.7242  -3.6250  -3.5604  -3.2536  -3.2072  -3.0504  -2.9227
    -2.8558  -2.7736  -2.7103  -2.4732  -2.2537  -2.2243  -1.7021  -1.5634
    -1.4198  -0.9766  -0.8485  -0.7717  -0.7252  -0.6326  -0.5902  -0.5459
    -0.3376  -0.1759  -0.1207  -0.1053  -0.0262   0.1833   0.1940   0.2211
     0.3598   0.3934   0.5180   0.5679   0.6945   0.7588   0.8456   0.9168
     0.9739   1.0906   1.1316   1.2718   1.2944   1.3429   1.4224   1.4931
     1.6393   1.7007   1.7410   1.7706   1.7991   1.8461   1.9458   2.0708
     2.1406   2.1459   2.2552   2.2986

          k =-0.4167-0.4167-0.2500 ( 87284 PWs)   bands (ev):

    -8.5591  -7.8095  -7.7911  -7.7452  -7.2314  -7.1899  -6.9817  -6.5586
    -6.5103  -6.4936  -6.2887  -6.2288  -5.9874  -5.7409  -5.6998  -5.4923
    -5.4705  -5.2074  -4.9710  -4.9498  -4.8079  -4.6923  -4.6126  -4.5321
    -4.3396  -3.7002  -3.5925  -3.5702  -3.2847  -3.2177  -3.0304  -2.9290
    -2.8543  -2.7893  -2.6851  -2.4581  -2.2660  -2.2594  -1.6942  -1.5778
    -1.4023  -0.9758  -0.8221  -0.7728  -0.7396  -0.6519  -0.5964  -0.5349
    -0.3094  -0.2199  -0.1006  -0.0766  -0.0354   0.1437   0.1839   0.2592
     0.3662   0.3846   0.5394   0.5527   0.6834   0.7281   0.8473   0.9333
     1.0268   1.1028   1.1743   1.1922   1.2364   1.4046   1.4251   1.5344
     1.6068   1.6591   1.7589   1.7887   1.7920   1.8883   1.9603   2.0922
     2.1119   2.1547   2.1817   2.2811

          k = 0.4167-0.4167 0.4167 ( 87182 PWs)   bands (ev):

    -8.5493  -7.8050  -7.7837  -7.7795  -7.2247  -7.2236  -7.0038  -6.5173
    -6.5020  -6.4918  -6.2480  -6.1905  -5.9487  -5.7371  -5.7030  -5.5303
    -5.4781  -5.3048  -4.9611  -4.9480  -4.8126  -4.6774  -4.6040  -4.5155
    -4.3661  -3.7534  -3.6157  -3.5487  -3.2798  -3.1989  -3.0050  -2.9100
    -2.8675  -2.7563  -2.6369  -2.5360  -2.2611  -2.2273  -1.6635  -1.5611
    -1.5407  -0.9750  -0.8859  -0.7968  -0.7104  -0.6059  -0.4994  -0.4711
    -0.4028  -0.2344  -0.1821  -0.0634  -0.0213   0.1999   0.2329   0.2411
     0.3495   0.4840   0.6608   0.6774   0.7213   0.7874   0.8443   0.9402
     0.9416   1.0391   1.0592   1.2268   1.2752   1.3162   1.3439   1.4319
     1.4914   1.6557   1.6623   1.7929   1.8562   1.8754   1.9458   2.0518
     2.0989   2.2025   2.2305   2.2511

     highest occupied level (ev):     2.3940

!    total energy              =    -327.03732741 Ry
     estimated scf accuracy    <       0.00000012 Ry

     The total energy is the sum of the following terms:
     one-electron contribution =     -81.48807904 Ry
     hartree contribution      =      90.16644186 Ry
     xc contribution           =     -94.38467230 Ry
     ewald contribution        =    -241.33101794 Ry

     convergence has been achieved in  28 iterations

     Forces acting on atoms (cartesian axes, Ry/au):

     atom    1 type  1   force =    -0.00158864   -0.00158864   -0.00737961
     atom    2 type  1   force =    -0.01281670    0.01281670    0.00067282
     atom    3 type  1   force =     0.01281670   -0.01281670    0.00067282
     atom    4 type  1   force =     0.00158864    0.00158864   -0.00737961
     atom    5 type  1   force =    -0.00162753   -0.00162753   -0.00485091
     atom    6 type  1   force =    -0.00654728    0.00654728    0.00097117
     atom    7 type  1   force =     0.00654728   -0.00654728    0.00097117
     atom    8 type  1   force =     0.00162753    0.00162753   -0.00485091
     atom    9 type  1   force =     0.00000000    0.00000000   -0.02932377
     atom   10 type  1   force =     0.00000000    0.00000000    0.00337661
     atom   11 type  1   force =     0.00140892   -0.00070233   -0.00089946
     atom   12 type  1   force =    -0.00140892    0.00070233   -0.00089946
     atom   13 type  1   force =     0.00826850    0.01123847    0.01920583
     atom   14 type  1   force =    -0.00826850   -0.01123847    0.01920583
     atom   15 type  1   force =    -0.00070233    0.00140892   -0.00089946
     atom   16 type  1   force =     0.00070233   -0.00140892   -0.00089946
     atom   17 type  1   force =     0.01123847    0.00826850    0.01920583
     atom   18 type  1   force =    -0.01123847   -0.00826850    0.01920583
     atom   19 type  1   force =    -0.00413076   -0.00413076   -0.00779305
     atom   20 type  1   force =     0.01126730   -0.02274270    0.00320903
     atom   21 type  1   force =    -0.02274270    0.01126730    0.00320903
     atom   22 type  1   force =    -0.00524686   -0.00524686    0.01067853
     atom   23 type  1   force =    -0.00244075   -0.00244075   -0.00225686
     atom   24 type  1   force =     0.02334129    0.00731923   -0.00525286
     atom   25 type  1   force =     0.00731923    0.02334129   -0.00525286
     atom   26 type  1   force =     0.01082457    0.01082457   -0.00532009
     atom   27 type  1   force =     0.00524686    0.00524686    0.01067853
     atom   28 type  1   force =     0.02274270   -0.01126730    0.00320903
     atom   29 type  1   force =    -0.01126730    0.02274270    0.00320903
     atom   30 type  1   force =     0.00413076    0.00413076   -0.00779305
     atom   31 type  1   force =    -0.01082457   -0.01082457   -0.00532009
     atom   32 type  1   force =    -0.00731923   -0.02334129   -0.00525286
     atom   33 type  1   force =    -0.02334129   -0.00731923   -0.00525286
     atom   34 type  1   force =     0.00244075    0.00244075   -0.00225686
     atom   35 type  1   force =    -0.00620814   -0.02625029    0.00173594
     atom   36 type  1   force =     0.01232659   -0.01232659   -0.01061304
     atom   37 type  1   force =    -0.00269917    0.00269917    0.00286767
     atom   38 type  1   force =     0.02625029    0.00620814    0.00173594
     atom   39 type  1   force =    -0.02625029   -0.00620814    0.00173594
     atom   40 type  1   force =     0.00269917   -0.00269917    0.00286767
     atom   41 type  1   force =    -0.01232659    0.01232659   -0.01061304
     atom   42 type  1   force =     0.00620814    0.02625029    0.00173594

     Total force =     0.118982     Total SCF correction =     0.000504


     Computing stress (Cartesian axis) and pressure

          total   stress  (Ry/bohr**3)                   (kbar)     P=      -34.01
  -0.00024590   0.00000317   0.00000000          -36.17        0.47        0.00
   0.00000317  -0.00024590   0.00000000            0.47      -36.17        0.00
   0.00000000   0.00000000  -0.00020170            0.00        0.00      -29.67


     Writing output data file ./Si64.save/

     init_run     :     35.58s CPU     66.49s WALL (       1 calls)
     electrons    :   7422.87s CPU  15383.16s WALL (       1 calls)
     forces       :     19.55s CPU     50.54s WALL (       1 calls)
     stress       :     24.01s CPU     31.36s WALL (       1 calls)

     Called by init_run:
     wfcinit      :     35.03s CPU     65.89s WALL (       1 calls)
     potinit      :      0.05s CPU      0.06s WALL (       1 calls)
     hinit0       :      0.06s CPU      0.07s WALL (       1 calls)

     Called by electrons:
     c_bands      :   7356.96s CPU  15315.77s WALL (      29 calls)
     sum_band     :     61.84s CPU     62.71s WALL (      29 calls)
     v_of_rho     :      0.83s CPU      0.95s WALL (      29 calls)
     mix_rho      :      3.13s CPU      3.56s WALL (      29 calls)

     Called by c_bands:
     init_us_2    :      5.18s CPU      7.91s WALL (    2196 calls)
     cegterg      :   7254.08s CPU  15079.02s WALL (    1044 calls)

     Called by *egterg:
     cdiaghg      :   1940.71s CPU   2463.51s WALL (    9863 calls)
     h_psi        :   1946.74s CPU   4818.23s WALL (    9935 calls)
     g_psi        :      1.56s CPU      2.73s WALL (    8855 calls)

     Called by h_psi:
     h_psi:calbec :   1203.51s CPU   3074.64s WALL (    9935 calls)
     vloc_psi     :    514.01s CPU    701.63s WALL (    9935 calls)
     add_vuspsi   :    226.68s CPU   1029.26s WALL (    9935 calls)

     General routines
     calbec       :   1229.56s CPU   3125.93s WALL (   10115 calls)
     fft          :      0.39s CPU      0.46s WALL (     298 calls)
     ffts         :      0.04s CPU      0.04s WALL (      29 calls)
     fftw         :    532.66s CPU    698.32s WALL (  600144 calls)

     Parallel routines
     fft_scatt_xy :     38.76s CPU     40.49s WALL (  600471 calls)
     fft_scatt_yz :    334.05s CPU    475.78s WALL (  600471 calls)

     PWSCF        :      2h 5m CPU      4h19m WALL


   This run was terminated on:  12:31:41  24Feb2022            

=------------------------------------------------------------------------------=
   JOB DONE.
=------------------------------------------------------------------------------=
