
     Program PWSCF v.7.0 starts on 18Feb2022 at 18:37:22 

     This program is part of the open-source Quantum ESPRESSO suite
     for quantum simulation of materials; please cite
         "P. Giannozzi et al., J. Phys.:Condens. Matter 21 395502 (2009);
         "P. Giannozzi et al., J. Phys.:Condens. Matter 29 465901 (2017);
         "P. Giannozzi et al., J. Chem. Phys. 152 154105 (2020);
          URL http://www.quantum-espresso.org", 
     in publications or presentations arising from this work. More details at
     http://www.quantum-espresso.org/quote

     Parallel version (MPI), running on     1 processors

     MPI processes distributed on     1 nodes
     88254 MiB available memory on the printing compute node when the environment starts
 
     Reading input from Si.scf.10.in

     Current dimensions of program PWSCF are:
     Max number of different atomic species (ntypx) = 10
     Max number of k-points (npk) =  40000
     Max angular momentum in pseudopotentials (lmaxx) =  4

     Subspace diagonalization in iterative solution of the eigenvalue problem:
     a serial algorithm will be used

 
     G-vector sticks info
     --------------------
     sticks:   dense  smooth     PW     G-vecs:    dense   smooth      PW
     Sum         151     151     61                 1243     1243     307
 
     Using Slab Decomposition
 


     bravais-lattice index     =            2
     lattice parameter (alat)  =      10.3330  a.u.
     unit-cell volume          =     275.8159 (a.u.)^3
     number of atoms/cell      =            2
     number of atomic types    =            1
     number of electrons       =         8.00
     number of Kohn-Sham states=            4
     kinetic-energy cutoff     =      10.0000  Ry
     charge density cutoff     =      40.0000  Ry
     scf convergence threshold =      1.0E-06
     mixing beta               =       0.7000
     number of iterations used =            8  plain     mixing
     Exchange-correlation=  SLA  PW   PBE  PBE
                           (   1   4   3   4   0   0   0)

     celldm(1)=  10.333000  celldm(2)=   0.000000  celldm(3)=   0.000000
     celldm(4)=   0.000000  celldm(5)=   0.000000  celldm(6)=   0.000000

     crystal axes: (cart. coord. in units of alat)
               a(1) = (  -0.500000   0.000000   0.500000 )  
               a(2) = (   0.000000   0.500000   0.500000 )  
               a(3) = (  -0.500000   0.500000   0.000000 )  

     reciprocal axes: (cart. coord. in units 2 pi/alat)
               b(1) = ( -1.000000 -1.000000  1.000000 )  
               b(2) = (  1.000000  1.000000  1.000000 )  
               b(3) = ( -1.000000  1.000000 -1.000000 )  


     PseudoPot. # 1 for Si read from file:
     ./Si.pbe-rrkj.UPF
     MD5 check sum: cf7ab5690cd9a85b22c4813f7e365554
     Pseudo is Norm-conserving, Zval =  4.0
     Generated by new atomic code, or converted to UPF format
     Using radial grid of  883 points,  3 beta functions with: 
                l(1) =   0
                l(2) =   0
                l(3) =   1

     atomic species   valence    mass     pseudopotential
        Si             4.00    28.08600     Si( 1.00)

     48 Sym. Ops., with inversion, found (24 have fractional translation)



   Cartesian axes

     site n.     atom                  positions (alat units)
         1           Si  tau(   1) = (   0.0000000   0.0000000   0.0000000  )
         2           Si  tau(   2) = (   0.2500000   0.2500000   0.2500000  )

     number of k points=    28
                       cart. coord. in units 2pi/alat
        k(    1) = (  -0.0833333   0.0833333   0.0833333), wk =   0.0185185
        k(    2) = (  -0.2500000   0.2500000  -0.0833333), wk =   0.0555556
        k(    3) = (  -0.4166667   0.4166667  -0.2500000), wk =   0.0555556
        k(    4) = (   0.4166667  -0.4166667   0.5833333), wk =   0.0555556
        k(    5) = (   0.2500000  -0.2500000   0.4166667), wk =   0.0555556
        k(    6) = (   0.0833333  -0.0833333   0.2500000), wk =   0.0555556
        k(    7) = (  -0.0833333   0.4166667   0.0833333), wk =   0.0555556
        k(    8) = (  -0.2500000   0.5833333  -0.0833333), wk =   0.1111111
        k(    9) = (   0.5833333  -0.2500000   0.7500000), wk =   0.1111111
        k(   10) = (   0.4166667  -0.0833333   0.5833333), wk =   0.1111111
        k(   11) = (   0.2500000   0.0833333   0.4166667), wk =   0.1111111
        k(   12) = (  -0.0833333   0.7500000   0.0833333), wk =   0.0555556
        k(   13) = (   0.7500000  -0.0833333   0.9166667), wk =   0.1111111
        k(   14) = (   0.5833333   0.0833333   0.7500000), wk =   0.1111111
        k(   15) = (   0.4166667   0.2500000   0.5833333), wk =   0.1111111
        k(   16) = (  -0.0833333  -0.9166667   0.0833333), wk =   0.0555556
        k(   17) = (  -0.2500000  -0.7500000  -0.0833333), wk =   0.1111111
        k(   18) = (  -0.0833333  -0.5833333   0.0833333), wk =   0.0555556
        k(   19) = (  -0.2500000   0.2500000   0.2500000), wk =   0.0185185
        k(   20) = (  -0.4166667   0.4166667   0.0833333), wk =   0.0555556
        k(   21) = (   0.4166667  -0.4166667   0.9166667), wk =   0.0555556
        k(   22) = (   0.2500000  -0.2500000   0.7500000), wk =   0.0555556
        k(   23) = (  -0.2500000   0.5833333   0.2500000), wk =   0.0555556
        k(   24) = (   0.5833333  -0.2500000   1.0833333), wk =   0.1111111
        k(   25) = (   0.4166667  -0.0833333   0.9166667), wk =   0.1111111
        k(   26) = (  -0.2500000  -1.0833333   0.2500000), wk =   0.0555556
        k(   27) = (  -0.4166667   0.4166667   0.4166667), wk =   0.0185185
        k(   28) = (   0.4166667  -0.4166667   1.2500000), wk =   0.0555556

     Dense  grid:     1243 G-vectors     FFT dimensions: (  16,  16,  16)

     Estimated max dynamical RAM per process >       1.21 MB

     Initial potential from superposition of free atoms

     starting charge       7.9989, renormalised to       8.0000
     Starting wfcs are    8 randomized atomic wfcs

     total cpu time spent up to now is        1.7 secs

     Self-consistent Calculation

     iteration #  1     ecut=    10.00 Ry     beta= 0.70
     Davidson diagonalization with overlap
     ethr =  1.00E-02,  avg # of iterations =  2.0

     Threshold (ethr) on eigenvalues was too large:
     Diagonalizing with lowered threshold

     Davidson diagonalization with overlap
     ethr =  5.67E-04,  avg # of iterations =  1.8

     total cpu time spent up to now is        2.1 secs

     total energy              =     -15.69579935 Ry
     estimated scf accuracy    <       0.05194995 Ry

     iteration #  2     ecut=    10.00 Ry     beta= 0.70
     Davidson diagonalization with overlap
     ethr =  6.49E-04,  avg # of iterations =  1.0

     total cpu time spent up to now is        2.3 secs

     total energy              =     -15.69707367 Ry
     estimated scf accuracy    <       0.00305110 Ry

     iteration #  3     ecut=    10.00 Ry     beta= 0.70
     Davidson diagonalization with overlap
     ethr =  3.81E-05,  avg # of iterations =  2.0

     total cpu time spent up to now is        2.5 secs

     total energy              =     -15.69747474 Ry
     estimated scf accuracy    <       0.00005686 Ry

     iteration #  4     ecut=    10.00 Ry     beta= 0.70
     Davidson diagonalization with overlap
     ethr =  7.11E-07,  avg # of iterations =  4.8

     total cpu time spent up to now is        2.8 secs

     End of self-consistent calculation

          k =-0.0833 0.0833 0.0833 (   153 PWs)   bands (ev):

    -5.6084   5.2115   5.9116   5.9116

          k =-0.2500 0.2500-0.0833 (   151 PWs)   bands (ev):

    -5.1318   3.1770   4.6951   5.6990

          k =-0.4167 0.4167-0.2500 (   147 PWs)   bands (ev):

    -4.0405   0.4554   4.2437   5.0660

          k = 0.4167-0.4167 0.5833 (   151 PWs)   bands (ev):

    -3.3527  -0.6800   4.3042   4.6907

          k = 0.2500-0.2500 0.4167 (   150 PWs)   bands (ev):

    -4.4573   1.2885   4.7524   4.8001

          k = 0.0833-0.0833 0.2500 (   153 PWs)   bands (ev):

    -5.3724   4.1683   5.2706   5.4603

          k =-0.0833 0.4167 0.0833 (   150 PWs)   bands (ev):

    -4.8888   3.0040   4.5406   4.5497

          k =-0.2500 0.5833-0.0833 (   145 PWs)   bands (ev):

    -3.9724   1.1993   3.2448   4.1698

          k = 0.5833-0.2500 0.7500 (   145 PWs)   bands (ev):

    -2.8671  -0.5328   2.6606   3.9422

          k = 0.4167-0.0833 0.5833 (   147 PWs)   bands (ev):

    -3.5865   0.5122   2.6125   4.4225

          k = 0.2500 0.0833 0.4167 (   149 PWs)   bands (ev):

    -4.6632   2.1763   3.9301   5.0828

          k =-0.0833 0.7500 0.0833 (   143 PWs)   bands (ev):

    -3.2590   0.3995   3.2004   3.5312

          k = 0.7500-0.0833 0.9167 (   145 PWs)   bands (ev):

    -2.0932  -0.9209   2.3739   3.1331

          k = 0.5833 0.0833 0.7500 (   147 PWs)   bands (ev):

    -2.4598  -0.6116   1.9016   3.6704

          k = 0.4167 0.2500 0.5833 (   147 PWs)   bands (ev):

    -3.4787  -0.1705   3.5485   4.5183

          k =-0.0833-0.9167 0.0833 (   148 PWs)   bands (ev):

    -2.1818  -0.9408   2.9333   3.3156

          k =-0.2500-0.7500-0.0833 (   146 PWs)   bands (ev):

    -3.1061   0.1707   2.6932   3.4684

          k =-0.0833-0.5833 0.0833 (   147 PWs)   bands (ev):

    -4.1827   1.7374   3.7411   3.9470

          k =-0.2500 0.2500 0.2500 (   150 PWs)   bands (ev):

    -4.9043   2.2082   5.2989   5.2989

          k =-0.4167 0.4167 0.0833 (   149 PWs)   bands (ev):

    -4.2290   1.3024   3.2118   5.1287

          k = 0.4167-0.4167 0.9167 (   147 PWs)   bands (ev):

    -3.0477  -0.1167   2.1198   4.3546

          k = 0.2500-0.2500 0.7500 (   145 PWs)   bands (ev):

    -2.9981  -0.1813   2.5936   3.8774

          k =-0.2500 0.5833 0.2500 (   147 PWs)   bands (ev):

    -3.8010   0.5046   3.6766   4.2473

          k = 0.5833-0.2500 1.0833 (   147 PWs)   bands (ev):

    -2.8144  -0.2136   2.2159   3.4692

          k = 0.4167-0.0833 0.9167 (   149 PWs)   bands (ev):

    -1.9939  -0.9505   2.0509   2.8118

          k =-0.2500-1.0833 0.2500 (   144 PWs)   bands (ev):

    -2.1825  -0.8500   1.9267   3.6855

          k =-0.4167 0.4167 0.4167 (   147 PWs)   bands (ev):

    -3.7146  -0.2779   4.9141   4.9141

          k = 0.4167-0.4167 1.2500 (   149 PWs)   bands (ev):

    -3.1222  -0.5721   3.1275   4.4760

     highest occupied level (ev):     5.9116

!    total energy              =     -15.69752745 Ry
     estimated scf accuracy    <       0.00000006 Ry

     The total energy is the sum of the following terms:
     one-electron contribution =       4.66946760 Ry
     hartree contribution      =       1.09595925 Ry
     xc contribution           =      -4.78071899 Ry
     ewald contribution        =     -16.68223531 Ry

     convergence has been achieved in   4 iterations

     Forces acting on atoms (cartesian axes, Ry/au):

     atom    1 type  1   force =     0.00000000    0.00000000    0.00000000
     atom    2 type  1   force =    -0.00000000   -0.00000000   -0.00000000

     Total force =     0.000000     Total SCF correction =     0.000000


     Computing stress (Cartesian axis) and pressure

          total   stress  (Ry/bohr**3)                   (kbar)     P=      -46.66
  -0.00031717   0.00000000  -0.00000000          -46.66        0.00       -0.00
   0.00000000  -0.00031717  -0.00000000            0.00      -46.66       -0.00
  -0.00000000   0.00000000  -0.00031717           -0.00        0.00      -46.66


     Writing all to output data dir ./Si2.save/
 
     init_run     :      0.19s CPU      0.52s WALL (       1 calls)
     electrons    :      0.81s CPU      1.17s WALL (       1 calls)
     forces       :      0.01s CPU      0.01s WALL (       1 calls)
     stress       :      0.05s CPU      0.07s WALL (       1 calls)

     Called by init_run:
     wfcinit      :      0.08s CPU      0.18s WALL (       1 calls)
     potinit      :      0.01s CPU      0.04s WALL (       1 calls)
     hinit0       :      0.09s CPU      0.14s WALL (       1 calls)

     Called by electrons:
     c_bands      :      0.69s CPU      0.99s WALL (       5 calls)
     sum_band     :      0.09s CPU      0.09s WALL (       5 calls)
     v_of_rho     :      0.03s CPU      0.05s WALL (       5 calls)
     mix_rho      :      0.00s CPU      0.01s WALL (       5 calls)

     Called by c_bands:
     init_us_2    :      0.03s CPU      0.05s WALL (     364 calls)
     init_us_2:cp :      0.03s CPU      0.04s WALL (     364 calls)
     cegterg      :      0.62s CPU      0.73s WALL (     140 calls)

     Called by *egterg:
     cdiaghg      :      0.11s CPU      0.15s WALL (     437 calls)
     h_psi        :      0.47s CPU      0.56s WALL (     493 calls)
     g_psi        :      0.00s CPU      0.00s WALL (     325 calls)

     Called by h_psi:
     h_psi:calbec :      0.03s CPU      0.07s WALL (     493 calls)
     vloc_psi     :      0.40s CPU      0.46s WALL (     493 calls)
     add_vuspsi   :      0.02s CPU      0.02s WALL (     493 calls)

     General routines
     calbec       :      0.03s CPU      0.06s WALL (     633 calls)
     fft          :      0.01s CPU      0.04s WALL (      58 calls)
     ffts         :      0.00s CPU      0.00s WALL (       5 calls)
     fftw         :      0.39s CPU      0.44s WALL (    4140 calls)
 
     Parallel routines
 
     PWSCF        :      1.27s CPU      3.58s WALL

 
   This run was terminated on:  18:37:26  18Feb2022            

=------------------------------------------------------------------------------=
   JOB DONE.
=------------------------------------------------------------------------------=
