
     Program PWSCF v.7.0 starts on 18Feb2022 at 19:16:26 

     This program is part of the open-source Quantum ESPRESSO suite
     for quantum simulation of materials; please cite
         "P. Giannozzi et al., J. Phys.:Condens. Matter 21 395502 (2009);
         "P. Giannozzi et al., J. Phys.:Condens. Matter 29 465901 (2017);
         "P. Giannozzi et al., J. Chem. Phys. 152 154105 (2020);
          URL http://www.quantum-espresso.org", 
     in publications or presentations arising from this work. More details at
     http://www.quantum-espresso.org/quote

     Parallel version (MPI), running on     1 processors

     MPI processes distributed on     1 nodes
     88100 MiB available memory on the printing compute node when the environment starts
 
     Reading input from Si.scf.3.in

     Current dimensions of program PWSCF are:
     Max number of different atomic species (ntypx) = 10
     Max number of k-points (npk) =  40000
     Max angular momentum in pseudopotentials (lmaxx) =  4

     Subspace diagonalization in iterative solution of the eigenvalue problem:
     a serial algorithm will be used

 
     G-vector sticks info
     --------------------
     sticks:   dense  smooth     PW     G-vecs:    dense   smooth      PW
     Sum         877     877    253                17261    17261    2741
 
     Using Slab Decomposition
 


     bravais-lattice index     =            2
     lattice parameter (alat)  =      10.3330  a.u.
     unit-cell volume          =     275.8159 (a.u.)^3
     number of atoms/cell      =            2
     number of atomic types    =            1
     number of electrons       =         8.00
     number of Kohn-Sham states=            4
     kinetic-energy cutoff     =      60.0000  Ry
     charge density cutoff     =     240.0000  Ry
     scf convergence threshold =      1.0E-06
     mixing beta               =       0.7000
     number of iterations used =            8  plain     mixing
     Exchange-correlation=  SLA  PW   PBE  PBE
                           (   1   4   3   4   0   0   0)

     celldm(1)=  10.333000  celldm(2)=   0.000000  celldm(3)=   0.000000
     celldm(4)=   0.000000  celldm(5)=   0.000000  celldm(6)=   0.000000

     crystal axes: (cart. coord. in units of alat)
               a(1) = (  -0.500000   0.000000   0.500000 )  
               a(2) = (   0.000000   0.500000   0.500000 )  
               a(3) = (  -0.500000   0.500000   0.000000 )  

     reciprocal axes: (cart. coord. in units 2 pi/alat)
               b(1) = ( -1.000000 -1.000000  1.000000 )  
               b(2) = (  1.000000  1.000000  1.000000 )  
               b(3) = ( -1.000000  1.000000 -1.000000 )  


     PseudoPot. # 1 for Si read from file:
     ./Si.pbe-rrkj.UPF
     MD5 check sum: cf7ab5690cd9a85b22c4813f7e365554
     Pseudo is Norm-conserving, Zval =  4.0
     Generated by new atomic code, or converted to UPF format
     Using radial grid of  883 points,  3 beta functions with: 
                l(1) =   0
                l(2) =   0
                l(3) =   1

     atomic species   valence    mass     pseudopotential
        Si             4.00    28.08600     Si( 1.00)

     48 Sym. Ops., with inversion, found (24 have fractional translation)



   Cartesian axes

     site n.     atom                  positions (alat units)
         1           Si  tau(   1) = (   0.0000000   0.0000000   0.0000000  )
         2           Si  tau(   2) = (   0.2500000   0.2500000   0.2500000  )

     number of k points=     6
                       cart. coord. in units 2pi/alat
        k(    1) = (  -0.1666667   0.1666667   0.1666667), wk =   0.1481481
        k(    2) = (   0.5000000  -0.5000000   0.8333333), wk =   0.4444444
        k(    3) = (   0.1666667  -0.1666667   0.5000000), wk =   0.4444444
        k(    4) = (  -0.1666667  -1.1666667   0.1666667), wk =   0.4444444
        k(    5) = (  -0.5000000  -0.8333333  -0.1666667), wk =   0.4444444
        k(    6) = (   0.5000000  -0.5000000  -0.5000000), wk =   0.0740741

     Dense  grid:    17261 G-vectors     FFT dimensions: (  40,  40,  40)

     Estimated max dynamical RAM per process >      13.57 MB

     Initial potential from superposition of free atoms

     starting charge       7.9989, renormalised to       8.0000
     Starting wfcs are    8 randomized atomic wfcs

     total cpu time spent up to now is        0.8 secs

     Self-consistent Calculation

     iteration #  1     ecut=    60.00 Ry     beta= 0.70
     Davidson diagonalization with overlap
     ethr =  1.00E-02,  avg # of iterations =  2.0

     Threshold (ethr) on eigenvalues was too large:
     Diagonalizing with lowered threshold

     Davidson diagonalization with overlap
     ethr =  5.72E-04,  avg # of iterations =  1.8

     total cpu time spent up to now is        1.6 secs

     total energy              =     -15.73837480 Ry
     estimated scf accuracy    <       0.05401239 Ry

     iteration #  2     ecut=    60.00 Ry     beta= 0.70
     Davidson diagonalization with overlap
     ethr =  6.75E-04,  avg # of iterations =  1.0

     total cpu time spent up to now is        1.9 secs

     total energy              =     -15.74001923 Ry
     estimated scf accuracy    <       0.00314180 Ry

     iteration #  3     ecut=    60.00 Ry     beta= 0.70
     Davidson diagonalization with overlap
     ethr =  3.93E-05,  avg # of iterations =  2.0

     total cpu time spent up to now is        2.3 secs

     total energy              =     -15.74056674 Ry
     estimated scf accuracy    <       0.00008506 Ry

     iteration #  4     ecut=    60.00 Ry     beta= 0.70
     Davidson diagonalization with overlap
     ethr =  1.06E-06,  avg # of iterations =  4.7

     total cpu time spent up to now is        2.8 secs

     total energy              =     -15.74063106 Ry
     estimated scf accuracy    <       0.00000419 Ry

     iteration #  5     ecut=    60.00 Ry     beta= 0.70
     Davidson diagonalization with overlap
     ethr =  5.24E-08,  avg # of iterations =  3.7

     total cpu time spent up to now is        3.3 secs

     End of self-consistent calculation

          k =-0.1667 0.1667 0.1667 (  2151 PWs)   bands (ev):

    -5.3870   3.6811   5.5821   5.5821

          k = 0.5000-0.5000 0.8333 (  2160 PWs)   bands (ev):

    -3.6760   0.1171   3.0415   4.7503

          k = 0.1667-0.1667 0.5000 (  2151 PWs)   bands (ev):

    -4.4660   1.6543   4.0722   4.3149

          k =-0.1667-1.1667 0.1667 (  2161 PWs)   bands (ev):

    -2.7310  -0.4464   2.4765   3.5219

          k =-0.5000-0.8333-0.1667 (  2176 PWs)   bands (ev):

    -2.5318  -0.7137   2.1049   3.3276

          k = 0.5000-0.5000-0.5000 (  2138 PWs)   bands (ev):

    -3.4574  -0.8199   4.8447   4.8447

     highest occupied level (ev):     5.5821

!    total energy              =     -15.74063412 Ry
     estimated scf accuracy    <       0.00000033 Ry

     The total energy is the sum of the following terms:
     one-electron contribution =       4.61854838 Ry
     hartree contribution      =       1.11524755 Ry
     xc contribution           =      -4.79219474 Ry
     ewald contribution        =     -16.68223531 Ry

     convergence has been achieved in   5 iterations

     Forces acting on atoms (cartesian axes, Ry/au):

     atom    1 type  1   force =     0.00000000    0.00000000    0.00000000
     atom    2 type  1   force =     0.00000000    0.00000000    0.00000000

     Total force =     0.000000     Total SCF correction =     0.000000


     Computing stress (Cartesian axis) and pressure

          total   stress  (Ry/bohr**3)                   (kbar)     P=        3.56
   0.00002421  -0.00000000   0.00000000            3.56       -0.00        0.00
   0.00000000   0.00002421   0.00000000            0.00        3.56        0.00
   0.00000000   0.00000000   0.00002421            0.00        0.00        3.56


     Writing all to output data dir ./Si2.save/
 
     init_run     :      0.50s CPU      0.54s WALL (       1 calls)
     electrons    :      2.38s CPU      2.53s WALL (       1 calls)
     forces       :      0.03s CPU      0.03s WALL (       1 calls)
     stress       :      0.25s CPU      0.26s WALL (       1 calls)

     Called by init_run:
     wfcinit      :      0.18s CPU      0.19s WALL (       1 calls)
     potinit      :      0.10s CPU      0.11s WALL (       1 calls)
     hinit0       :      0.18s CPU      0.19s WALL (       1 calls)

     Called by electrons:
     c_bands      :      1.54s CPU      1.65s WALL (       6 calls)
     sum_band     :      0.36s CPU      0.37s WALL (       6 calls)
     v_of_rho     :      0.54s CPU      0.56s WALL (       6 calls)
     mix_rho      :      0.02s CPU      0.02s WALL (       6 calls)

     Called by c_bands:
     init_us_2    :      0.11s CPU      0.11s WALL (      90 calls)
     init_us_2:cp :      0.11s CPU      0.11s WALL (      90 calls)
     cegterg      :      1.47s CPU      1.51s WALL (      36 calls)

     Called by *egterg:
     cdiaghg      :      0.04s CPU      0.04s WALL (     121 calls)
     h_psi        :      1.50s CPU      1.54s WALL (     133 calls)
     g_psi        :      0.01s CPU      0.01s WALL (      91 calls)

     Called by h_psi:
     h_psi:calbec :      0.03s CPU      0.03s WALL (     133 calls)
     vloc_psi     :      1.45s CPU      1.49s WALL (     133 calls)
     add_vuspsi   :      0.02s CPU      0.02s WALL (     133 calls)

     General routines
     calbec       :      0.03s CPU      0.03s WALL (     163 calls)
     fft          :      0.10s CPU      0.11s WALL (      68 calls)
     ffts         :      0.01s CPU      0.01s WALL (       6 calls)
     fftw         :      1.40s CPU      1.43s WALL (    1098 calls)
 
     Parallel routines
 
     PWSCF        :      3.36s CPU      3.87s WALL

 
   This run was terminated on:  19:16:30  18Feb2022            

=------------------------------------------------------------------------------=
   JOB DONE.
=------------------------------------------------------------------------------=
