
     Program PWSCF v.7.0 starts on 18Feb2022 at 18:37:32 

     This program is part of the open-source Quantum ESPRESSO suite
     for quantum simulation of materials; please cite
         "P. Giannozzi et al., J. Phys.:Condens. Matter 21 395502 (2009);
         "P. Giannozzi et al., J. Phys.:Condens. Matter 29 465901 (2017);
         "P. Giannozzi et al., J. Chem. Phys. 152 154105 (2020);
          URL http://www.quantum-espresso.org", 
     in publications or presentations arising from this work. More details at
     http://www.quantum-espresso.org/quote

     Parallel version (MPI), running on     1 processors

     MPI processes distributed on     1 nodes
     88222 MiB available memory on the printing compute node when the environment starts
 
     Reading input from Si.scf.30.in

     Current dimensions of program PWSCF are:
     Max number of different atomic species (ntypx) = 10
     Max number of k-points (npk) =  40000
     Max angular momentum in pseudopotentials (lmaxx) =  4

     Subspace diagonalization in iterative solution of the eigenvalue problem:
     a serial algorithm will be used

 
     G-vector sticks info
     --------------------
     sticks:   dense  smooth     PW     G-vecs:    dense   smooth      PW
     Sum         439     439    151                 6183     6183    1211
 
     Using Slab Decomposition
 


     bravais-lattice index     =            2
     lattice parameter (alat)  =      10.3330  a.u.
     unit-cell volume          =     275.8159 (a.u.)^3
     number of atoms/cell      =            2
     number of atomic types    =            1
     number of electrons       =         8.00
     number of Kohn-Sham states=            4
     kinetic-energy cutoff     =      30.0000  Ry
     charge density cutoff     =     120.0000  Ry
     scf convergence threshold =      1.0E-06
     mixing beta               =       0.7000
     number of iterations used =            8  plain     mixing
     Exchange-correlation=  SLA  PW   PBE  PBE
                           (   1   4   3   4   0   0   0)

     celldm(1)=  10.333000  celldm(2)=   0.000000  celldm(3)=   0.000000
     celldm(4)=   0.000000  celldm(5)=   0.000000  celldm(6)=   0.000000

     crystal axes: (cart. coord. in units of alat)
               a(1) = (  -0.500000   0.000000   0.500000 )  
               a(2) = (   0.000000   0.500000   0.500000 )  
               a(3) = (  -0.500000   0.500000   0.000000 )  

     reciprocal axes: (cart. coord. in units 2 pi/alat)
               b(1) = ( -1.000000 -1.000000  1.000000 )  
               b(2) = (  1.000000  1.000000  1.000000 )  
               b(3) = ( -1.000000  1.000000 -1.000000 )  


     PseudoPot. # 1 for Si read from file:
     ./Si.pbe-rrkj.UPF
     MD5 check sum: cf7ab5690cd9a85b22c4813f7e365554
     Pseudo is Norm-conserving, Zval =  4.0
     Generated by new atomic code, or converted to UPF format
     Using radial grid of  883 points,  3 beta functions with: 
                l(1) =   0
                l(2) =   0
                l(3) =   1

     atomic species   valence    mass     pseudopotential
        Si             4.00    28.08600     Si( 1.00)

     48 Sym. Ops., with inversion, found (24 have fractional translation)



   Cartesian axes

     site n.     atom                  positions (alat units)
         1           Si  tau(   1) = (   0.0000000   0.0000000   0.0000000  )
         2           Si  tau(   2) = (   0.2500000   0.2500000   0.2500000  )

     number of k points=    28
                       cart. coord. in units 2pi/alat
        k(    1) = (  -0.0833333   0.0833333   0.0833333), wk =   0.0185185
        k(    2) = (  -0.2500000   0.2500000  -0.0833333), wk =   0.0555556
        k(    3) = (  -0.4166667   0.4166667  -0.2500000), wk =   0.0555556
        k(    4) = (   0.4166667  -0.4166667   0.5833333), wk =   0.0555556
        k(    5) = (   0.2500000  -0.2500000   0.4166667), wk =   0.0555556
        k(    6) = (   0.0833333  -0.0833333   0.2500000), wk =   0.0555556
        k(    7) = (  -0.0833333   0.4166667   0.0833333), wk =   0.0555556
        k(    8) = (  -0.2500000   0.5833333  -0.0833333), wk =   0.1111111
        k(    9) = (   0.5833333  -0.2500000   0.7500000), wk =   0.1111111
        k(   10) = (   0.4166667  -0.0833333   0.5833333), wk =   0.1111111
        k(   11) = (   0.2500000   0.0833333   0.4166667), wk =   0.1111111
        k(   12) = (  -0.0833333   0.7500000   0.0833333), wk =   0.0555556
        k(   13) = (   0.7500000  -0.0833333   0.9166667), wk =   0.1111111
        k(   14) = (   0.5833333   0.0833333   0.7500000), wk =   0.1111111
        k(   15) = (   0.4166667   0.2500000   0.5833333), wk =   0.1111111
        k(   16) = (  -0.0833333  -0.9166667   0.0833333), wk =   0.0555556
        k(   17) = (  -0.2500000  -0.7500000  -0.0833333), wk =   0.1111111
        k(   18) = (  -0.0833333  -0.5833333   0.0833333), wk =   0.0555556
        k(   19) = (  -0.2500000   0.2500000   0.2500000), wk =   0.0185185
        k(   20) = (  -0.4166667   0.4166667   0.0833333), wk =   0.0555556
        k(   21) = (   0.4166667  -0.4166667   0.9166667), wk =   0.0555556
        k(   22) = (   0.2500000  -0.2500000   0.7500000), wk =   0.0555556
        k(   23) = (  -0.2500000   0.5833333   0.2500000), wk =   0.0555556
        k(   24) = (   0.5833333  -0.2500000   1.0833333), wk =   0.1111111
        k(   25) = (   0.4166667  -0.0833333   0.9166667), wk =   0.1111111
        k(   26) = (  -0.2500000  -1.0833333   0.2500000), wk =   0.0555556
        k(   27) = (  -0.4166667   0.4166667   0.4166667), wk =   0.0185185
        k(   28) = (   0.4166667  -0.4166667   1.2500000), wk =   0.0555556

     Dense  grid:     6183 G-vectors     FFT dimensions: (  32,  32,  32)

     Estimated max dynamical RAM per process >       6.63 MB

     Initial potential from superposition of free atoms

     starting charge       7.9989, renormalised to       8.0000
     Starting wfcs are    8 randomized atomic wfcs

     total cpu time spent up to now is        0.8 secs

     Self-consistent Calculation

     iteration #  1     ecut=    30.00 Ry     beta= 0.70
     Davidson diagonalization with overlap
     ethr =  1.00E-02,  avg # of iterations =  2.0

     Threshold (ethr) on eigenvalues was too large:
     Diagonalizing with lowered threshold

     Davidson diagonalization with overlap
     ethr =  5.72E-04,  avg # of iterations =  2.0

     total cpu time spent up to now is        1.9 secs

     total energy              =     -15.73941026 Ry
     estimated scf accuracy    <       0.05376795 Ry

     iteration #  2     ecut=    30.00 Ry     beta= 0.70
     Davidson diagonalization with overlap
     ethr =  6.72E-04,  avg # of iterations =  1.0

     total cpu time spent up to now is        2.4 secs

     total energy              =     -15.74114273 Ry
     estimated scf accuracy    <       0.00308117 Ry

     iteration #  3     ecut=    30.00 Ry     beta= 0.70
     Davidson diagonalization with overlap
     ethr =  3.85E-05,  avg # of iterations =  2.1

     total cpu time spent up to now is        3.0 secs

     total energy              =     -15.74174225 Ry
     estimated scf accuracy    <       0.00009173 Ry

     iteration #  4     ecut=    30.00 Ry     beta= 0.70
     Davidson diagonalization with overlap
     ethr =  1.15E-06,  avg # of iterations =  4.4

     total cpu time spent up to now is        3.8 secs

     total energy              =     -15.74181452 Ry
     estimated scf accuracy    <       0.00000462 Ry

     iteration #  5     ecut=    30.00 Ry     beta= 0.70
     Davidson diagonalization with overlap
     ethr =  5.78E-08,  avg # of iterations =  4.3

     total cpu time spent up to now is        4.6 secs

     End of self-consistent calculation

          k =-0.0833 0.0833 0.0833 (   749 PWs)   bands (ev):

    -5.6572   5.1713   5.8765   5.8765

          k =-0.2500 0.2500-0.0833 (   772 PWs)   bands (ev):

    -5.1876   3.1207   4.6656   5.6680

          k =-0.4167 0.4167-0.2500 (   768 PWs)   bands (ev):

    -4.1121   0.4009   4.2065   5.0412

          k = 0.4167-0.4167 0.5833 (   767 PWs)   bands (ev):

    -3.4255  -0.7247   4.2705   4.6675

          k = 0.2500-0.2500 0.4167 (   774 PWs)   bands (ev):

    -4.5174   1.2345   4.7284   4.7618

          k = 0.0833-0.0833 0.2500 (   775 PWs)   bands (ev):

    -5.4201   4.1168   5.2433   5.4255

          k =-0.0833 0.4167 0.0833 (   775 PWs)   bands (ev):

    -4.9500   2.9320   4.5111   4.5254

          k =-0.2500 0.5833-0.0833 (   770 PWs)   bands (ev):

    -4.0534   1.1191   3.2169   4.1450

          k = 0.5833-0.2500 0.7500 (   763 PWs)   bands (ev):

    -2.9555  -0.6021   2.6240   3.9218

          k = 0.4167-0.0833 0.5833 (   768 PWs)   bands (ev):

    -3.6652   0.4377   2.5850   4.3994

          k = 0.2500 0.0833 0.4167 (   771 PWs)   bands (ev):

    -4.7279   2.1095   3.9023   5.0549

          k =-0.0833 0.7500 0.0833 (   769 PWs)   bands (ev):

    -3.3524   0.3019   3.1802   3.5116

          k = 0.7500-0.0833 0.9167 (   758 PWs)   bands (ev):

    -2.1754  -1.0181   2.3553   3.1146

          k = 0.5833 0.0833 0.7500 (   759 PWs)   bands (ev):

    -2.5419  -0.6854   1.8805   3.6509

          k = 0.4167 0.2500 0.5833 (   768 PWs)   bands (ev):

    -3.5554  -0.2328   3.5080   4.4943

          k =-0.0833-0.9167 0.0833 (   764 PWs)   bands (ev):

    -2.2652  -1.0256   2.9148   3.2992

          k =-0.2500-0.7500-0.0833 (   766 PWs)   bands (ev):

    -3.1867   0.0822   2.6708   3.4494

          k =-0.0833-0.5833 0.0833 (   767 PWs)   bands (ev):

    -4.2557   1.6478   3.7162   3.9279

          k =-0.2500 0.2500 0.2500 (   769 PWs)   bands (ev):

    -4.9615   2.1578   5.2725   5.2725

          k =-0.4167 0.4167 0.0833 (   767 PWs)   bands (ev):

    -4.2927   1.2346   3.1821   5.1048

          k = 0.4167-0.4167 0.9167 (   769 PWs)   bands (ev):

    -3.1324  -0.1868   2.0941   4.3326

          k = 0.2500-0.2500 0.7500 (   763 PWs)   bands (ev):

    -3.0807  -0.2650   2.5640   3.8591

          k =-0.2500 0.5833 0.2500 (   773 PWs)   bands (ev):

    -3.8752   0.4399   3.6364   4.2264

          k = 0.5833-0.2500 1.0833 (   761 PWs)   bands (ev):

    -2.8890  -0.3001   2.1926   3.4492

          k = 0.4167-0.0833 0.9167 (   755 PWs)   bands (ev):

    -2.0713  -1.0258   2.0324   2.7941

          k =-0.2500-1.0833 0.2500 (   760 PWs)   bands (ev):

    -2.2787  -0.9317   1.9081   3.6675

          k =-0.4167 0.4167 0.4167 (   769 PWs)   bands (ev):

    -3.7884  -0.3304   4.8887   4.8887

          k = 0.4167-0.4167 1.2500 (   768 PWs)   bands (ev):

    -3.1934  -0.6296   3.0902   4.4570

     highest occupied level (ev):     5.8765

!    total energy              =     -15.74181786 Ry
     estimated scf accuracy    <       0.00000021 Ry

     The total energy is the sum of the following terms:
     one-electron contribution =       4.61909139 Ry
     hartree contribution      =       1.11204828 Ry
     xc contribution           =      -4.79072219 Ry
     ewald contribution        =     -16.68223534 Ry

     convergence has been achieved in   5 iterations

     Forces acting on atoms (cartesian axes, Ry/au):

     atom    1 type  1   force =     0.00000000    0.00000000    0.00000000
     atom    2 type  1   force =     0.00000000    0.00000000    0.00000000

     Total force =     0.000000     Total SCF correction =     0.000000


     Computing stress (Cartesian axis) and pressure

          total   stress  (Ry/bohr**3)                   (kbar)     P=        3.32
   0.00002258   0.00000000   0.00000000            3.32        0.00        0.00
   0.00000000   0.00002258   0.00000000            0.00        3.32        0.00
   0.00000000   0.00000000   0.00002258            0.00        0.00        3.32


     Writing all to output data dir ./Si2.save/
 
     init_run     :      0.49s CPU      0.54s WALL (       1 calls)
     electrons    :      3.38s CPU      3.77s WALL (       1 calls)
     forces       :      0.03s CPU      0.03s WALL (       1 calls)
     stress       :      0.24s CPU      0.25s WALL (       1 calls)

     Called by init_run:
     wfcinit      :      0.28s CPU      0.30s WALL (       1 calls)
     potinit      :      0.05s CPU      0.06s WALL (       1 calls)
     hinit0       :      0.14s CPU      0.16s WALL (       1 calls)

     Called by electrons:
     c_bands      :      2.70s CPU      3.04s WALL (       6 calls)
     sum_band     :      0.44s CPU      0.46s WALL (       6 calls)
     v_of_rho     :      0.26s CPU      0.27s WALL (       6 calls)
     mix_rho      :      0.01s CPU      0.01s WALL (       6 calls)

     Called by c_bands:
     init_us_2    :      0.18s CPU      0.20s WALL (     420 calls)
     init_us_2:cp :      0.17s CPU      0.19s WALL (     420 calls)
     cegterg      :      2.55s CPU      2.65s WALL (     168 calls)

     Called by *egterg:
     cdiaghg      :      0.18s CPU      0.19s WALL (     581 calls)
     h_psi        :      2.37s CPU      2.45s WALL (     637 calls)
     g_psi        :      0.01s CPU      0.01s WALL (     441 calls)

     Called by h_psi:
     h_psi:calbec :      0.09s CPU      0.09s WALL (     637 calls)
     vloc_psi     :      2.20s CPU      2.28s WALL (     637 calls)
     add_vuspsi   :      0.04s CPU      0.04s WALL (     637 calls)

     General routines
     calbec       :      0.08s CPU      0.09s WALL (     777 calls)
     fft          :      0.04s CPU      0.05s WALL (      68 calls)
     ffts         :      0.00s CPU      0.00s WALL (       6 calls)
     fftw         :      2.01s CPU      2.09s WALL (    5174 calls)
 
     Parallel routines
 
     PWSCF        :      4.36s CPU      5.20s WALL

 
   This run was terminated on:  18:37:37  18Feb2022            

=------------------------------------------------------------------------------=
   JOB DONE.
=------------------------------------------------------------------------------=
