
     Program PWSCF v.7.0 starts on 18Feb2022 at 19:17:21 

     This program is part of the open-source Quantum ESPRESSO suite
     for quantum simulation of materials; please cite
         "P. Giannozzi et al., J. Phys.:Condens. Matter 21 395502 (2009);
         "P. Giannozzi et al., J. Phys.:Condens. Matter 29 465901 (2017);
         "P. Giannozzi et al., J. Chem. Phys. 152 154105 (2020);
          URL http://www.quantum-espresso.org", 
     in publications or presentations arising from this work. More details at
     http://www.quantum-espresso.org/quote

     Parallel version (MPI), running on     1 processors

     MPI processes distributed on     1 nodes
     88095 MiB available memory on the printing compute node when the environment starts
 
     Reading input from Si.scf.8.in

     Current dimensions of program PWSCF are:
     Max number of different atomic species (ntypx) = 10
     Max number of k-points (npk) =  40000
     Max angular momentum in pseudopotentials (lmaxx) =  4

     Subspace diagonalization in iterative solution of the eigenvalue problem:
     a serial algorithm will be used

 
     G-vector sticks info
     --------------------
     sticks:   dense  smooth     PW     G-vecs:    dense   smooth      PW
     Sum         877     877    271                17261    17261    2975
 
     Using Slab Decomposition
 


     bravais-lattice index     =            2
     lattice parameter (alat)  =      10.3330  a.u.
     unit-cell volume          =     275.8159 (a.u.)^3
     number of atoms/cell      =            2
     number of atomic types    =            1
     number of electrons       =         8.00
     number of Kohn-Sham states=            4
     kinetic-energy cutoff     =      60.0000  Ry
     charge density cutoff     =     240.0000  Ry
     scf convergence threshold =      1.0E-06
     mixing beta               =       0.7000
     number of iterations used =            8  plain     mixing
     Exchange-correlation=  SLA  PW   PBE  PBE
                           (   1   4   3   4   0   0   0)

     celldm(1)=  10.333000  celldm(2)=   0.000000  celldm(3)=   0.000000
     celldm(4)=   0.000000  celldm(5)=   0.000000  celldm(6)=   0.000000

     crystal axes: (cart. coord. in units of alat)
               a(1) = (  -0.500000   0.000000   0.500000 )  
               a(2) = (   0.000000   0.500000   0.500000 )  
               a(3) = (  -0.500000   0.500000   0.000000 )  

     reciprocal axes: (cart. coord. in units 2 pi/alat)
               b(1) = ( -1.000000 -1.000000  1.000000 )  
               b(2) = (  1.000000  1.000000  1.000000 )  
               b(3) = ( -1.000000  1.000000 -1.000000 )  


     PseudoPot. # 1 for Si read from file:
     ./Si.pbe-rrkj.UPF
     MD5 check sum: cf7ab5690cd9a85b22c4813f7e365554
     Pseudo is Norm-conserving, Zval =  4.0
     Generated by new atomic code, or converted to UPF format
     Using radial grid of  883 points,  3 beta functions with: 
                l(1) =   0
                l(2) =   0
                l(3) =   1

     atomic species   valence    mass     pseudopotential
        Si             4.00    28.08600     Si( 1.00)

     48 Sym. Ops., with inversion, found (24 have fractional translation)



   Cartesian axes

     site n.     atom                  positions (alat units)
         1           Si  tau(   1) = (   0.0000000   0.0000000   0.0000000  )
         2           Si  tau(   2) = (   0.2500000   0.2500000   0.2500000  )

     number of k points=    60
                       cart. coord. in units 2pi/alat
        k(    1) = (  -0.0625000   0.0625000   0.0625000), wk =   0.0078125
        k(    2) = (  -0.1875000   0.1875000  -0.0625000), wk =   0.0234375
        k(    3) = (  -0.3125000   0.3125000  -0.1875000), wk =   0.0234375
        k(    4) = (  -0.4375000   0.4375000  -0.3125000), wk =   0.0234375
        k(    5) = (   0.4375000  -0.4375000   0.5625000), wk =   0.0234375
        k(    6) = (   0.3125000  -0.3125000   0.4375000), wk =   0.0234375
        k(    7) = (   0.1875000  -0.1875000   0.3125000), wk =   0.0234375
        k(    8) = (   0.0625000  -0.0625000   0.1875000), wk =   0.0234375
        k(    9) = (  -0.0625000   0.3125000   0.0625000), wk =   0.0234375
        k(   10) = (  -0.1875000   0.4375000  -0.0625000), wk =   0.0468750
        k(   11) = (  -0.3125000   0.5625000  -0.1875000), wk =   0.0468750
        k(   12) = (   0.5625000  -0.3125000   0.6875000), wk =   0.0468750
        k(   13) = (   0.4375000  -0.1875000   0.5625000), wk =   0.0468750
        k(   14) = (   0.3125000  -0.0625000   0.4375000), wk =   0.0468750
        k(   15) = (   0.1875000   0.0625000   0.3125000), wk =   0.0468750
        k(   16) = (  -0.0625000   0.5625000   0.0625000), wk =   0.0234375
        k(   17) = (  -0.1875000   0.6875000  -0.0625000), wk =   0.0468750
        k(   18) = (   0.6875000  -0.1875000   0.8125000), wk =   0.0468750
        k(   19) = (   0.5625000  -0.0625000   0.6875000), wk =   0.0468750
        k(   20) = (   0.4375000   0.0625000   0.5625000), wk =   0.0468750
        k(   21) = (   0.3125000   0.1875000   0.4375000), wk =   0.0468750
        k(   22) = (  -0.0625000   0.8125000   0.0625000), wk =   0.0234375
        k(   23) = (   0.8125000  -0.0625000   0.9375000), wk =   0.0468750
        k(   24) = (   0.6875000   0.0625000   0.8125000), wk =   0.0468750
        k(   25) = (   0.5625000   0.1875000   0.6875000), wk =   0.0468750
        k(   26) = (   0.4375000   0.3125000   0.5625000), wk =   0.0468750
        k(   27) = (  -0.0625000  -0.9375000   0.0625000), wk =   0.0234375
        k(   28) = (  -0.1875000  -0.8125000  -0.0625000), wk =   0.0468750
        k(   29) = (  -0.3125000  -0.6875000  -0.1875000), wk =   0.0468750
        k(   30) = (  -0.0625000  -0.6875000   0.0625000), wk =   0.0234375
        k(   31) = (  -0.1875000  -0.5625000  -0.0625000), wk =   0.0468750
        k(   32) = (  -0.0625000  -0.4375000   0.0625000), wk =   0.0234375
        k(   33) = (  -0.1875000   0.1875000   0.1875000), wk =   0.0078125
        k(   34) = (  -0.3125000   0.3125000   0.0625000), wk =   0.0234375
        k(   35) = (  -0.4375000   0.4375000  -0.0625000), wk =   0.0234375
        k(   36) = (   0.4375000  -0.4375000   0.8125000), wk =   0.0234375
        k(   37) = (   0.3125000  -0.3125000   0.6875000), wk =   0.0234375
        k(   38) = (   0.1875000  -0.1875000   0.5625000), wk =   0.0234375
        k(   39) = (  -0.1875000   0.4375000   0.1875000), wk =   0.0234375
        k(   40) = (  -0.3125000   0.5625000   0.0625000), wk =   0.0468750
        k(   41) = (   0.5625000  -0.3125000   0.9375000), wk =   0.0468750
        k(   42) = (   0.4375000  -0.1875000   0.8125000), wk =   0.0468750
        k(   43) = (   0.3125000  -0.0625000   0.6875000), wk =   0.0468750
        k(   44) = (  -0.1875000   0.6875000   0.1875000), wk =   0.0234375
        k(   45) = (   0.6875000  -0.1875000   1.0625000), wk =   0.0468750
        k(   46) = (   0.5625000  -0.0625000   0.9375000), wk =   0.0468750
        k(   47) = (   0.4375000   0.0625000   0.8125000), wk =   0.0468750
        k(   48) = (  -0.1875000  -1.0625000   0.1875000), wk =   0.0234375
        k(   49) = (  -0.3125000  -0.9375000   0.0625000), wk =   0.0468750
        k(   50) = (  -0.1875000  -0.8125000   0.1875000), wk =   0.0234375
        k(   51) = (  -0.3125000   0.3125000   0.3125000), wk =   0.0078125
        k(   52) = (  -0.4375000   0.4375000   0.1875000), wk =   0.0234375
        k(   53) = (   0.4375000  -0.4375000   1.0625000), wk =   0.0234375
        k(   54) = (   0.3125000  -0.3125000   0.9375000), wk =   0.0234375
        k(   55) = (  -0.3125000   0.5625000   0.3125000), wk =   0.0234375
        k(   56) = (   0.5625000  -0.3125000   1.1875000), wk =   0.0468750
        k(   57) = (   0.4375000  -0.1875000   1.0625000), wk =   0.0468750
        k(   58) = (  -0.3125000  -1.1875000   0.3125000), wk =   0.0234375
        k(   59) = (  -0.4375000   0.4375000   0.4375000), wk =   0.0078125
        k(   60) = (   0.4375000  -0.4375000   1.3125000), wk =   0.0234375

     Dense  grid:    17261 G-vectors     FFT dimensions: (  40,  40,  40)

     Estimated max dynamical RAM per process >      20.71 MB

     Initial potential from superposition of free atoms

     starting charge       7.9989, renormalised to       8.0000
     Starting wfcs are    8 randomized atomic wfcs

     total cpu time spent up to now is        2.5 secs

     Self-consistent Calculation

     iteration #  1     ecut=    60.00 Ry     beta= 0.70
     Davidson diagonalization with overlap
     ethr =  1.00E-02,  avg # of iterations =  2.0

     Threshold (ethr) on eigenvalues was too large:
     Diagonalizing with lowered threshold

     Davidson diagonalization with overlap
     ethr =  5.70E-04,  avg # of iterations =  2.0

     total cpu time spent up to now is        8.5 secs

     total energy              =     -15.73953654 Ry
     estimated scf accuracy    <       0.05366561 Ry

     iteration #  2     ecut=    60.00 Ry     beta= 0.70
     Davidson diagonalization with overlap
     ethr =  6.71E-04,  avg # of iterations =  1.0

     total cpu time spent up to now is       11.0 secs

     total energy              =     -15.74124268 Ry
     estimated scf accuracy    <       0.00309491 Ry

     iteration #  3     ecut=    60.00 Ry     beta= 0.70
     Davidson diagonalization with overlap
     ethr =  3.87E-05,  avg # of iterations =  2.1

     total cpu time spent up to now is       14.2 secs

     total energy              =     -15.74182774 Ry
     estimated scf accuracy    <       0.00008943 Ry

     iteration #  4     ecut=    60.00 Ry     beta= 0.70
     Davidson diagonalization with overlap
     ethr =  1.12E-06,  avg # of iterations =  4.8

     total cpu time spent up to now is       18.5 secs

     total energy              =     -15.74190272 Ry
     estimated scf accuracy    <       0.00000336 Ry

     iteration #  5     ecut=    60.00 Ry     beta= 0.70
     Davidson diagonalization with overlap
     ethr =  4.20E-08,  avg # of iterations =  4.2

     total cpu time spent up to now is       22.7 secs

     End of self-consistent calculation

          k =-0.0625 0.0625 0.0625 (  2136 PWs)   bands (ev):

    -5.6965   5.4938   5.9338   5.9338

          k =-0.1875 0.1875-0.0625 (  2147 PWs)   bands (ev):

    -5.4302   4.0081   5.1363   5.8172

          k =-0.3125 0.3125-0.1875 (  2161 PWs)   bands (ev):

    -4.7873   1.8025   4.6537   5.3591

          k =-0.4375 0.4375-0.3125 (  2164 PWs)   bands (ev):

    -3.8895  -0.0705   4.4397   4.9555

          k = 0.4375-0.4375 0.5625 (  2155 PWs)   bands (ev):

    -3.4423  -0.7677   4.4894   4.7390

          k = 0.3125-0.3125 0.4375 (  2156 PWs)   bands (ev):

    -4.1972   0.4838   4.7595   4.7739

          k = 0.1875-0.1875 0.3125 (  2153 PWs)   bands (ev):

    -5.0394   2.5263   5.0336   5.2340

          k = 0.0625-0.0625 0.1875 (  2144 PWs)   bands (ev):

    -5.5627   4.7538   5.5114   5.6715

          k =-0.0625 0.3125 0.0625 (  2156 PWs)   bands (ev):

    -5.2962   3.8721   4.9583   5.0450

          k =-0.1875 0.4375-0.0625 (  2160 PWs)   bands (ev):

    -4.7751   2.3851   3.9992   4.7869

          k =-0.3125 0.5625-0.1875 (  2152 PWs)   bands (ev):

    -3.9350   0.5396   3.5120   4.3782

          k = 0.5625-0.3125 0.6875 (  2168 PWs)   bands (ev):

    -3.1758  -0.6637   3.2267   4.2848

          k = 0.4375-0.1875 0.5625 (  2165 PWs)   bands (ev):

    -3.6325   0.0233   3.1526   4.5679

          k = 0.3125-0.0625 0.4375 (  2158 PWs)   bands (ev):

    -4.5286   1.7399   3.4488   5.0721

          k = 0.1875 0.0625 0.3125 (  2150 PWs)   bands (ev):

    -5.1667   3.2009   4.5649   5.4432

          k =-0.0625 0.5625 0.0625 (  2161 PWs)   bands (ev):

    -4.3773   1.8909   3.8566   3.9759

          k =-0.1875 0.6875-0.0625 (  2162 PWs)   bands (ev):

    -3.6304   0.6642   3.0766   3.6320

          k = 0.6875-0.1875 0.8125 (  2165 PWs)   bands (ev):

    -2.7367  -0.5263   2.2438   3.6007

          k = 0.5625-0.0625 0.6875 (  2174 PWs)   bands (ev):

    -2.8070  -0.4334   1.8924   3.9428

          k = 0.4375 0.0625 0.5625 (  2165 PWs)   bands (ev):

    -3.6987   0.5098   2.4941   4.5240

          k = 0.3125 0.1875 0.4375 (  2160 PWs)   bands (ev):

    -4.4159   1.1357   4.1167   4.9741

          k =-0.0625 0.8125 0.0625 (  2159 PWs)   bands (ev):

    -2.9815  -0.1909   3.1719   3.3869

          k = 0.8125-0.0625 0.9375 (  2171 PWs)   bands (ev):

    -2.0771  -1.1726   2.6185   3.1456

          k = 0.6875 0.0625 0.8125 (  2171 PWs)   bands (ev):

    -2.1709  -1.0098   1.8942   3.4585

          k = 0.5625 0.1875 0.6875 (  2175 PWs)   bands (ev):

    -2.9220  -0.6143   2.4497   4.0552

          k = 0.4375 0.3125 0.5625 (  2167 PWs)   bands (ev):

    -3.5274  -0.4708   3.9455   4.6396

          k =-0.0625-0.9375 0.0625 (  2169 PWs)   bands (ev):

    -2.1288  -1.1904   3.0350   3.2665

          k =-0.1875-0.8125-0.0625 (  2165 PWs)   bands (ev):

    -2.8961  -0.2540   2.7754   3.3039

          k =-0.3125-0.6875-0.1875 (  2171 PWs)   bands (ev):

    -3.3629  -0.0026   2.8424   3.8988

          k =-0.0625-0.6875 0.0625 (  2160 PWs)   bands (ev):

    -3.7351   0.8464   3.4459   3.6252

          k =-0.1875-0.5625-0.0625 (  2162 PWs)   bands (ev):

    -4.2605   1.5461   3.4943   4.1389

          k =-0.0625-0.4375 0.0625 (  2162 PWs)   bands (ev):

    -4.8997   2.9096   4.3993   4.4280

          k =-0.1875 0.1875 0.1875 (  2151 PWs)   bands (ev):

    -5.2993   3.2895   5.4966   5.4966

          k =-0.3125 0.3125 0.0625 (  2153 PWs)   bands (ev):

    -4.9094   2.4606   3.9976   5.5151

          k =-0.4375 0.4375-0.0625 (  2161 PWs)   bands (ev):

    -4.1662   1.1047   2.9243   5.0137

          k = 0.4375-0.4375 0.8125 (  2168 PWs)   bands (ev):

    -3.2749  -0.3776   2.7765   4.4861

          k = 0.3125-0.3125 0.6875 (  2166 PWs)   bands (ev):

    -3.2596  -0.4055   3.0751   4.1701

          k = 0.1875-0.1875 0.5625 (  2154 PWs)   bands (ev):

    -4.1497   1.1011   3.6824   4.1461

          k =-0.1875 0.4375 0.1875 (  2152 PWs)   bands (ev):

    -4.6541   1.7990   4.5053   4.5618

          k =-0.3125 0.5625 0.0625 (  2159 PWs)   bands (ev):

    -4.0311   1.0414   2.9801   4.3694

          k = 0.5625-0.3125 0.9375 (  2170 PWs)   bands (ev):

    -3.1439  -0.0502   2.1944   3.8042

          k = 0.4375-0.1875 0.8125 (  2176 PWs)   bands (ev):

    -2.6576  -0.6622   2.1999   3.4926

          k = 0.3125-0.0625 0.6875 (  2163 PWs)   bands (ev):

    -3.4280   0.3399   2.6177   3.6711

          k =-0.1875 0.6875 0.1875 (  2155 PWs)   bands (ev):

    -3.5370   0.3947   2.9517   3.8176

          k = 0.6875-0.1875 1.0625 (  2175 PWs)   bands (ev):

    -2.7373  -0.3934   2.3739   3.1369

          k = 0.5625-0.0625 0.9375 (  2176 PWs)   bands (ev):

    -1.9326  -1.1423   2.0554   2.6383

          k = 0.4375 0.0625 0.8125 (  2179 PWs)   bands (ev):

    -2.5322  -0.6001   2.0496   3.1114

          k =-0.1875-1.0625 0.1875 (  2169 PWs)   bands (ev):

    -2.0962  -1.1235   2.1595   3.4774

          k =-0.3125-0.9375 0.0625 (  2183 PWs)   bands (ev):

    -1.9965  -1.1519   2.2529   2.8527

          k =-0.1875-0.8125 0.1875 (  2165 PWs)   bands (ev):

    -2.8344  -0.3573   2.4262   3.5920

          k =-0.3125 0.3125 0.3125 (  2157 PWs)   bands (ev):

    -4.5469   1.1029   5.0863   5.0863

          k =-0.4375 0.4375 0.1875 (  2162 PWs)   bands (ev):

    -4.0695   0.5316   3.6373   4.9994

          k = 0.4375-0.4375 1.0625 (  2164 PWs)   bands (ev):

    -3.2809   0.0114   2.1152   4.4223

          k = 0.3125-0.3125 0.9375 (  2163 PWs)   bands (ev):

    -2.4626  -0.7622   1.7760   3.8790

          k =-0.3125 0.5625 0.3125 (  2153 PWs)   bands (ev):

    -3.7562  -0.0239   3.9739   4.4395

          k = 0.5625-0.3125 1.1875 (  2175 PWs)   bands (ev):

    -3.1389  -0.3760   2.6710   3.9674

          k = 0.4375-0.1875 1.0625 (  2184 PWs)   bands (ev):

    -2.3255  -0.8251   1.8673   3.2585

          k =-0.3125-1.1875 0.3125 (  2170 PWs)   bands (ev):

    -2.7815  -0.6515   2.2777   3.9782

          k =-0.4375 0.4375 0.4375 (  2159 PWs)   bands (ev):

    -3.6597  -0.5332   4.8668   4.8668

          k = 0.4375-0.4375 1.3125 (  2165 PWs)   bands (ev):

    -3.3099  -0.7064   3.6586   4.6004

     highest occupied level (ev):     5.9338

!    total energy              =     -15.74190537 Ry
     estimated scf accuracy    <       0.00000018 Ry

     The total energy is the sum of the following terms:
     one-electron contribution =       4.61894864 Ry
     hartree contribution      =       1.11205060 Ry
     xc contribution           =      -4.79066930 Ry
     ewald contribution        =     -16.68223531 Ry

     convergence has been achieved in   5 iterations

     Forces acting on atoms (cartesian axes, Ry/au):

     atom    1 type  1   force =    -0.00000000   -0.00000000   -0.00000000
     atom    2 type  1   force =     0.00000000    0.00000000    0.00000000

     Total force =     0.000000     Total SCF correction =     0.000000


     Computing stress (Cartesian axis) and pressure

          total   stress  (Ry/bohr**3)                   (kbar)     P=        3.40
   0.00002314  -0.00000000   0.00000000            3.40       -0.00        0.00
  -0.00000000   0.00002314   0.00000000           -0.00        3.40        0.00
   0.00000000  -0.00000000   0.00002314            0.00       -0.00        3.40


     Writing all to output data dir ./Si2.save/
 
     init_run     :      2.13s CPU      2.23s WALL (       1 calls)
     electrons    :     19.02s CPU     20.18s WALL (       1 calls)
     forces       :      0.14s CPU      0.15s WALL (       1 calls)
     stress       :      1.22s CPU      1.24s WALL (       1 calls)

     Called by init_run:
     wfcinit      :      1.79s CPU      1.86s WALL (       1 calls)
     potinit      :      0.10s CPU      0.11s WALL (       1 calls)
     hinit0       :      0.17s CPU      0.19s WALL (       1 calls)

     Called by electrons:
     c_bands      :     15.71s CPU     16.73s WALL (       6 calls)
     sum_band     :      2.82s CPU      2.91s WALL (       6 calls)
     v_of_rho     :      0.54s CPU      0.56s WALL (       6 calls)
     mix_rho      :      0.02s CPU      0.02s WALL (       6 calls)

     Called by c_bands:
     init_us_2    :      1.06s CPU      1.12s WALL (     900 calls)
     init_us_2:cp :      1.04s CPU      1.11s WALL (     900 calls)
     cegterg      :     14.95s CPU     15.46s WALL (     360 calls)

     Called by *egterg:
     cdiaghg      :      0.38s CPU      0.42s WALL (    1269 calls)
     h_psi        :     15.22s CPU     15.69s WALL (    1389 calls)
     g_psi        :      0.05s CPU      0.06s WALL (     969 calls)

     Called by h_psi:
     h_psi:calbec :      0.28s CPU      0.30s WALL (    1389 calls)
     vloc_psi     :     14.66s CPU     15.08s WALL (    1389 calls)
     add_vuspsi   :      0.18s CPU      0.19s WALL (    1389 calls)

     General routines
     calbec       :      0.30s CPU      0.33s WALL (    1689 calls)
     fft          :      0.09s CPU      0.11s WALL (      68 calls)
     ffts         :      0.01s CPU      0.01s WALL (       6 calls)
     fftw         :     14.11s CPU     14.53s WALL (   11142 calls)
 
     Parallel routines
 
     PWSCF        :     22.77s CPU     24.72s WALL

 
   This run was terminated on:  19:17:46  18Feb2022            

=------------------------------------------------------------------------------=
   JOB DONE.
=------------------------------------------------------------------------------=
