
     Program PWSCF v.7.0 starts on 18Feb2022 at 19:16:31 

     This program is part of the open-source Quantum ESPRESSO suite
     for quantum simulation of materials; please cite
         "P. Giannozzi et al., J. Phys.:Condens. Matter 21 395502 (2009);
         "P. Giannozzi et al., J. Phys.:Condens. Matter 29 465901 (2017);
         "P. Giannozzi et al., J. Chem. Phys. 152 154105 (2020);
          URL http://www.quantum-espresso.org", 
     in publications or presentations arising from this work. More details at
     http://www.quantum-espresso.org/quote

     Parallel version (MPI), running on     1 processors

     MPI processes distributed on     1 nodes
     88102 MiB available memory on the printing compute node when the environment starts
 
     Reading input from Si.scf.4.in

     Current dimensions of program PWSCF are:
     Max number of different atomic species (ntypx) = 10
     Max number of k-points (npk) =  40000
     Max angular momentum in pseudopotentials (lmaxx) =  4

     Subspace diagonalization in iterative solution of the eigenvalue problem:
     a serial algorithm will be used

 
     G-vector sticks info
     --------------------
     sticks:   dense  smooth     PW     G-vecs:    dense   smooth      PW
     Sum         877     877    265                17261    17261    2837
 
     Using Slab Decomposition
 


     bravais-lattice index     =            2
     lattice parameter (alat)  =      10.3330  a.u.
     unit-cell volume          =     275.8159 (a.u.)^3
     number of atoms/cell      =            2
     number of atomic types    =            1
     number of electrons       =         8.00
     number of Kohn-Sham states=            4
     kinetic-energy cutoff     =      60.0000  Ry
     charge density cutoff     =     240.0000  Ry
     scf convergence threshold =      1.0E-06
     mixing beta               =       0.7000
     number of iterations used =            8  plain     mixing
     Exchange-correlation=  SLA  PW   PBE  PBE
                           (   1   4   3   4   0   0   0)

     celldm(1)=  10.333000  celldm(2)=   0.000000  celldm(3)=   0.000000
     celldm(4)=   0.000000  celldm(5)=   0.000000  celldm(6)=   0.000000

     crystal axes: (cart. coord. in units of alat)
               a(1) = (  -0.500000   0.000000   0.500000 )  
               a(2) = (   0.000000   0.500000   0.500000 )  
               a(3) = (  -0.500000   0.500000   0.000000 )  

     reciprocal axes: (cart. coord. in units 2 pi/alat)
               b(1) = ( -1.000000 -1.000000  1.000000 )  
               b(2) = (  1.000000  1.000000  1.000000 )  
               b(3) = ( -1.000000  1.000000 -1.000000 )  


     PseudoPot. # 1 for Si read from file:
     ./Si.pbe-rrkj.UPF
     MD5 check sum: cf7ab5690cd9a85b22c4813f7e365554
     Pseudo is Norm-conserving, Zval =  4.0
     Generated by new atomic code, or converted to UPF format
     Using radial grid of  883 points,  3 beta functions with: 
                l(1) =   0
                l(2) =   0
                l(3) =   1

     atomic species   valence    mass     pseudopotential
        Si             4.00    28.08600     Si( 1.00)

     48 Sym. Ops., with inversion, found (24 have fractional translation)



   Cartesian axes

     site n.     atom                  positions (alat units)
         1           Si  tau(   1) = (   0.0000000   0.0000000   0.0000000  )
         2           Si  tau(   2) = (   0.2500000   0.2500000   0.2500000  )

     number of k points=    10
                       cart. coord. in units 2pi/alat
        k(    1) = (  -0.1250000   0.1250000   0.1250000), wk =   0.0625000
        k(    2) = (  -0.3750000   0.3750000  -0.1250000), wk =   0.1875000
        k(    3) = (   0.3750000  -0.3750000   0.6250000), wk =   0.1875000
        k(    4) = (   0.1250000  -0.1250000   0.3750000), wk =   0.1875000
        k(    5) = (  -0.1250000   0.6250000   0.1250000), wk =   0.1875000
        k(    6) = (   0.6250000  -0.1250000   0.8750000), wk =   0.3750000
        k(    7) = (   0.3750000   0.1250000   0.6250000), wk =   0.3750000
        k(    8) = (  -0.1250000  -0.8750000   0.1250000), wk =   0.1875000
        k(    9) = (  -0.3750000   0.3750000   0.3750000), wk =   0.0625000
        k(   10) = (   0.3750000  -0.3750000   1.1250000), wk =   0.1875000

     Dense  grid:    17261 G-vectors     FFT dimensions: (  40,  40,  40)

     Estimated max dynamical RAM per process >      14.10 MB

     Initial potential from superposition of free atoms

     starting charge       7.9989, renormalised to       8.0000
     Starting wfcs are    8 randomized atomic wfcs

     total cpu time spent up to now is        0.9 secs

     Self-consistent Calculation

     iteration #  1     ecut=    60.00 Ry     beta= 0.70
     Davidson diagonalization with overlap
     ethr =  1.00E-02,  avg # of iterations =  2.0

     Threshold (ethr) on eigenvalues was too large:
     Diagonalizing with lowered threshold

     Davidson diagonalization with overlap
     ethr =  5.75E-04,  avg # of iterations =  1.9

     total cpu time spent up to now is        2.1 secs

     total energy              =     -15.73939085 Ry
     estimated scf accuracy    <       0.05369044 Ry

     iteration #  2     ecut=    60.00 Ry     beta= 0.70
     Davidson diagonalization with overlap
     ethr =  6.71E-04,  avg # of iterations =  1.0

     total cpu time spent up to now is        2.6 secs

     total energy              =     -15.74109863 Ry
     estimated scf accuracy    <       0.00309447 Ry

     iteration #  3     ecut=    60.00 Ry     beta= 0.70
     Davidson diagonalization with overlap
     ethr =  3.87E-05,  avg # of iterations =  2.2

     total cpu time spent up to now is        3.2 secs

     total energy              =     -15.74165695 Ry
     estimated scf accuracy    <       0.00008581 Ry

     iteration #  4     ecut=    60.00 Ry     beta= 0.70
     Davidson diagonalization with overlap
     ethr =  1.07E-06,  avg # of iterations =  4.6

     total cpu time spent up to now is        4.0 secs

     total energy              =     -15.74171673 Ry
     estimated scf accuracy    <       0.00000278 Ry

     iteration #  5     ecut=    60.00 Ry     beta= 0.70
     Davidson diagonalization with overlap
     ethr =  3.48E-08,  avg # of iterations =  4.2

     total cpu time spent up to now is        4.8 secs

     End of self-consistent calculation

          k =-0.1250 0.1250 0.1250 (  2139 PWs)   bands (ev):

    -5.5456   4.4447   5.7352   5.7352

          k =-0.3750 0.3750-0.1250 (  2155 PWs)   bands (ev):

    -4.5189   1.4682   3.7599   5.2567

          k = 0.3750-0.3750 0.6250 (  2166 PWs)   bands (ev):

    -3.3762  -0.6102   3.7842   4.4870

          k = 0.1250-0.1250 0.3750 (  2158 PWs)   bands (ev):

    -5.0179   2.8418   4.7300   4.8009

          k =-0.1250 0.6250 0.1250 (  2155 PWs)   bands (ev):

    -3.9870   1.1457   3.4092   3.8577

          k = 0.6250-0.1250 0.8750 (  2179 PWs)   bands (ev):

    -2.3456  -0.8102   2.0546   3.1288

          k = 0.3750 0.1250 0.6250 (  2165 PWs)   bands (ev):

    -3.5703   0.2687   2.7716   4.1329

          k =-0.1250-0.8750 0.1250 (  2167 PWs)   bands (ev):

    -2.5157  -0.7116   2.6630   3.3916

          k =-0.3750 0.3750 0.3750 (  2162 PWs)   bands (ev):

    -4.0849   0.1764   4.9506   4.9506

          k = 0.3750-0.3750 1.1250 (  2170 PWs)   bands (ev):

    -2.8813  -0.5159   2.1167   4.1706

     highest occupied level (ev):     5.7352

!    total energy              =     -15.74171917 Ry
     estimated scf accuracy    <       0.00000016 Ry

     The total energy is the sum of the following terms:
     one-electron contribution =       4.61882653 Ry
     hartree contribution      =       1.11264926 Ry
     xc contribution           =      -4.79095965 Ry
     ewald contribution        =     -16.68223531 Ry

     convergence has been achieved in   5 iterations

     Forces acting on atoms (cartesian axes, Ry/au):

     atom    1 type  1   force =     0.00000000    0.00000000    0.00000000
     atom    2 type  1   force =     0.00000000    0.00000000    0.00000000

     Total force =     0.000000     Total SCF correction =     0.000000


     Computing stress (Cartesian axis) and pressure

          total   stress  (Ry/bohr**3)                   (kbar)     P=        3.35
   0.00002277   0.00000000   0.00000000            3.35        0.00        0.00
   0.00000000   0.00002277   0.00000000            0.00        3.35        0.00
   0.00000000   0.00000000   0.00002277            0.00        0.00        3.35


     Writing all to output data dir ./Si2.save/
 
     init_run     :      0.61s CPU      0.66s WALL (       1 calls)
     electrons    :      3.65s CPU      3.88s WALL (       1 calls)
     forces       :      0.03s CPU      0.03s WALL (       1 calls)
     stress       :      0.33s CPU      0.34s WALL (       1 calls)

     Called by init_run:
     wfcinit      :      0.30s CPU      0.31s WALL (       1 calls)
     potinit      :      0.10s CPU      0.11s WALL (       1 calls)
     hinit0       :      0.18s CPU      0.19s WALL (       1 calls)

     Called by electrons:
     c_bands      :      2.64s CPU      2.81s WALL (       6 calls)
     sum_band     :      0.54s CPU      0.56s WALL (       6 calls)
     v_of_rho     :      0.53s CPU      0.55s WALL (       6 calls)
     mix_rho      :      0.02s CPU      0.02s WALL (       6 calls)

     Called by c_bands:
     init_us_2    :      0.18s CPU      0.19s WALL (     150 calls)
     init_us_2:cp :      0.18s CPU      0.19s WALL (     150 calls)
     cegterg      :      2.51s CPU      2.59s WALL (      60 calls)

     Called by *egterg:
     cdiaghg      :      0.06s CPU      0.07s WALL (     209 calls)
     h_psi        :      2.55s CPU      2.62s WALL (     229 calls)
     g_psi        :      0.01s CPU      0.01s WALL (     159 calls)

     Called by h_psi:
     h_psi:calbec :      0.05s CPU      0.05s WALL (     229 calls)
     vloc_psi     :      2.46s CPU      2.52s WALL (     229 calls)
     add_vuspsi   :      0.03s CPU      0.03s WALL (     229 calls)

     General routines
     calbec       :      0.05s CPU      0.06s WALL (     279 calls)
     fft          :      0.09s CPU      0.11s WALL (      68 calls)
     ffts         :      0.01s CPU      0.01s WALL (       6 calls)
     fftw         :      2.37s CPU      2.43s WALL (    1850 calls)
 
     Parallel routines
 
     PWSCF        :      4.82s CPU      5.44s WALL

 
   This run was terminated on:  19:16:36  18Feb2022            

=------------------------------------------------------------------------------=
   JOB DONE.
=------------------------------------------------------------------------------=
