
     Program PWSCF v.7.0 starts on 18Feb2022 at 18:38:10 

     This program is part of the open-source Quantum ESPRESSO suite
     for quantum simulation of materials; please cite
         "P. Giannozzi et al., J. Phys.:Condens. Matter 21 395502 (2009);
         "P. Giannozzi et al., J. Phys.:Condens. Matter 29 465901 (2017);
         "P. Giannozzi et al., J. Chem. Phys. 152 154105 (2020);
          URL http://www.quantum-espresso.org", 
     in publications or presentations arising from this work. More details at
     http://www.quantum-espresso.org/quote

     Parallel version (MPI), running on     1 processors

     MPI processes distributed on     1 nodes
     88216 MiB available memory on the printing compute node when the environment starts
 
     Reading input from Si.scf.70.in

     Current dimensions of program PWSCF are:
     Max number of different atomic species (ntypx) = 10
     Max number of k-points (npk) =  40000
     Max angular momentum in pseudopotentials (lmaxx) =  4

     Subspace diagonalization in iterative solution of the eigenvalue problem:
     a serial algorithm will be used

 
     G-vector sticks info
     --------------------
     sticks:   dense  smooth     PW     G-vecs:    dense   smooth      PW
     Sum        1039    1039    313                22075    22075    3695
 
     Using Slab Decomposition
 


     bravais-lattice index     =            2
     lattice parameter (alat)  =      10.3330  a.u.
     unit-cell volume          =     275.8159 (a.u.)^3
     number of atoms/cell      =            2
     number of atomic types    =            1
     number of electrons       =         8.00
     number of Kohn-Sham states=            4
     kinetic-energy cutoff     =      70.0000  Ry
     charge density cutoff     =     280.0000  Ry
     scf convergence threshold =      1.0E-06
     mixing beta               =       0.7000
     number of iterations used =            8  plain     mixing
     Exchange-correlation=  SLA  PW   PBE  PBE
                           (   1   4   3   4   0   0   0)

     celldm(1)=  10.333000  celldm(2)=   0.000000  celldm(3)=   0.000000
     celldm(4)=   0.000000  celldm(5)=   0.000000  celldm(6)=   0.000000

     crystal axes: (cart. coord. in units of alat)
               a(1) = (  -0.500000   0.000000   0.500000 )  
               a(2) = (   0.000000   0.500000   0.500000 )  
               a(3) = (  -0.500000   0.500000   0.000000 )  

     reciprocal axes: (cart. coord. in units 2 pi/alat)
               b(1) = ( -1.000000 -1.000000  1.000000 )  
               b(2) = (  1.000000  1.000000  1.000000 )  
               b(3) = ( -1.000000  1.000000 -1.000000 )  


     PseudoPot. # 1 for Si read from file:
     ./Si.pbe-rrkj.UPF
     MD5 check sum: cf7ab5690cd9a85b22c4813f7e365554
     Pseudo is Norm-conserving, Zval =  4.0
     Generated by new atomic code, or converted to UPF format
     Using radial grid of  883 points,  3 beta functions with: 
                l(1) =   0
                l(2) =   0
                l(3) =   1

     atomic species   valence    mass     pseudopotential
        Si             4.00    28.08600     Si( 1.00)

     48 Sym. Ops., with inversion, found (24 have fractional translation)



   Cartesian axes

     site n.     atom                  positions (alat units)
         1           Si  tau(   1) = (   0.0000000   0.0000000   0.0000000  )
         2           Si  tau(   2) = (   0.2500000   0.2500000   0.2500000  )

     number of k points=    28
                       cart. coord. in units 2pi/alat
        k(    1) = (  -0.0833333   0.0833333   0.0833333), wk =   0.0185185
        k(    2) = (  -0.2500000   0.2500000  -0.0833333), wk =   0.0555556
        k(    3) = (  -0.4166667   0.4166667  -0.2500000), wk =   0.0555556
        k(    4) = (   0.4166667  -0.4166667   0.5833333), wk =   0.0555556
        k(    5) = (   0.2500000  -0.2500000   0.4166667), wk =   0.0555556
        k(    6) = (   0.0833333  -0.0833333   0.2500000), wk =   0.0555556
        k(    7) = (  -0.0833333   0.4166667   0.0833333), wk =   0.0555556
        k(    8) = (  -0.2500000   0.5833333  -0.0833333), wk =   0.1111111
        k(    9) = (   0.5833333  -0.2500000   0.7500000), wk =   0.1111111
        k(   10) = (   0.4166667  -0.0833333   0.5833333), wk =   0.1111111
        k(   11) = (   0.2500000   0.0833333   0.4166667), wk =   0.1111111
        k(   12) = (  -0.0833333   0.7500000   0.0833333), wk =   0.0555556
        k(   13) = (   0.7500000  -0.0833333   0.9166667), wk =   0.1111111
        k(   14) = (   0.5833333   0.0833333   0.7500000), wk =   0.1111111
        k(   15) = (   0.4166667   0.2500000   0.5833333), wk =   0.1111111
        k(   16) = (  -0.0833333  -0.9166667   0.0833333), wk =   0.0555556
        k(   17) = (  -0.2500000  -0.7500000  -0.0833333), wk =   0.1111111
        k(   18) = (  -0.0833333  -0.5833333   0.0833333), wk =   0.0555556
        k(   19) = (  -0.2500000   0.2500000   0.2500000), wk =   0.0185185
        k(   20) = (  -0.4166667   0.4166667   0.0833333), wk =   0.0555556
        k(   21) = (   0.4166667  -0.4166667   0.9166667), wk =   0.0555556
        k(   22) = (   0.2500000  -0.2500000   0.7500000), wk =   0.0555556
        k(   23) = (  -0.2500000   0.5833333   0.2500000), wk =   0.0555556
        k(   24) = (   0.5833333  -0.2500000   1.0833333), wk =   0.1111111
        k(   25) = (   0.4166667  -0.0833333   0.9166667), wk =   0.1111111
        k(   26) = (  -0.2500000  -1.0833333   0.2500000), wk =   0.0555556
        k(   27) = (  -0.4166667   0.4166667   0.4166667), wk =   0.0185185
        k(   28) = (   0.4166667  -0.4166667   1.2500000), wk =   0.0555556

     Dense  grid:    22075 G-vectors     FFT dimensions: (  40,  40,  40)

     Estimated max dynamical RAM per process >      19.72 MB

     Initial potential from superposition of free atoms

     starting charge       7.9989, renormalised to       8.0000
     Starting wfcs are    8 randomized atomic wfcs

     total cpu time spent up to now is        1.6 secs

     Self-consistent Calculation

     iteration #  1     ecut=    70.00 Ry     beta= 0.70
     Davidson diagonalization with overlap
     ethr =  1.00E-02,  avg # of iterations =  2.0

     Threshold (ethr) on eigenvalues was too large:
     Diagonalizing with lowered threshold

     Davidson diagonalization with overlap
     ethr =  5.68E-04,  avg # of iterations =  2.0

     total cpu time spent up to now is        4.6 secs

     total energy              =     -15.73950674 Ry
     estimated scf accuracy    <       0.05360775 Ry

     iteration #  2     ecut=    70.00 Ry     beta= 0.70
     Davidson diagonalization with overlap
     ethr =  6.70E-04,  avg # of iterations =  1.0

     total cpu time spent up to now is        5.8 secs

     total energy              =     -15.74122130 Ry
     estimated scf accuracy    <       0.00309847 Ry

     iteration #  3     ecut=    70.00 Ry     beta= 0.70
     Davidson diagonalization with overlap
     ethr =  3.87E-05,  avg # of iterations =  2.0

     total cpu time spent up to now is        7.4 secs

     total energy              =     -15.74182556 Ry
     estimated scf accuracy    <       0.00009143 Ry

     iteration #  4     ecut=    70.00 Ry     beta= 0.70
     Davidson diagonalization with overlap
     ethr =  1.14E-06,  avg # of iterations =  4.8

     total cpu time spent up to now is        9.6 secs

     total energy              =     -15.74190038 Ry
     estimated scf accuracy    <       0.00000437 Ry

     iteration #  5     ecut=    70.00 Ry     beta= 0.70
     Davidson diagonalization with overlap
     ethr =  5.46E-08,  avg # of iterations =  4.5

     total cpu time spent up to now is       11.7 secs

     End of self-consistent calculation

          k =-0.0833 0.0833 0.0833 (  2728 PWs)   bands (ev):

    -5.6574   5.1710   5.8762   5.8762

          k =-0.2500 0.2500-0.0833 (  2736 PWs)   bands (ev):

    -5.1878   3.1204   4.6654   5.6677

          k =-0.4167 0.4167-0.2500 (  2734 PWs)   bands (ev):

    -4.1123   0.4007   4.2062   5.0409

          k = 0.4167-0.4167 0.5833 (  2731 PWs)   bands (ev):

    -3.4258  -0.7249   4.2703   4.6673

          k = 0.2500-0.2500 0.4167 (  2727 PWs)   bands (ev):

    -4.5176   1.2342   4.7281   4.7616

          k = 0.0833-0.0833 0.2500 (  2726 PWs)   bands (ev):

    -5.4203   4.1165   5.2430   5.4252

          k =-0.0833 0.4167 0.0833 (  2733 PWs)   bands (ev):

    -4.9502   2.9317   4.5108   4.5251

          k =-0.2500 0.5833-0.0833 (  2731 PWs)   bands (ev):

    -4.0536   1.1188   3.2167   4.1448

          k = 0.5833-0.2500 0.7500 (  2726 PWs)   bands (ev):

    -2.9557  -0.6024   2.6237   3.9216

          k = 0.4167-0.0833 0.5833 (  2724 PWs)   bands (ev):

    -3.6655   0.4374   2.5847   4.3991

          k = 0.2500 0.0833 0.4167 (  2729 PWs)   bands (ev):

    -4.7282   2.1092   3.9021   5.0546

          k =-0.0833 0.7500 0.0833 (  2734 PWs)   bands (ev):

    -3.3527   0.3016   3.1800   3.5113

          k = 0.7500-0.0833 0.9167 (  2726 PWs)   bands (ev):

    -2.1757  -1.0184   2.3550   3.1143

          k = 0.5833 0.0833 0.7500 (  2719 PWs)   bands (ev):

    -2.5421  -0.6857   1.8802   3.6506

          k = 0.4167 0.2500 0.5833 (  2730 PWs)   bands (ev):

    -3.5556  -0.2331   3.5078   4.4941

          k =-0.0833-0.9167 0.0833 (  2733 PWs)   bands (ev):

    -2.2655  -1.0259   2.9146   3.2990

          k =-0.2500-0.7500-0.0833 (  2727 PWs)   bands (ev):

    -3.1870   0.0819   2.6706   3.4492

          k =-0.0833-0.5833 0.0833 (  2730 PWs)   bands (ev):

    -4.2559   1.6475   3.7159   3.9276

          k =-0.2500 0.2500 0.2500 (  2731 PWs)   bands (ev):

    -4.9617   2.1575   5.2723   5.2723

          k =-0.4167 0.4167 0.0833 (  2728 PWs)   bands (ev):

    -4.2929   1.2343   3.1818   5.1045

          k = 0.4167-0.4167 0.9167 (  2720 PWs)   bands (ev):

    -3.1326  -0.1871   2.0938   4.3324

          k = 0.2500-0.2500 0.7500 (  2720 PWs)   bands (ev):

    -3.0810  -0.2653   2.5637   3.8588

          k =-0.2500 0.5833 0.2500 (  2731 PWs)   bands (ev):

    -3.8755   0.4396   3.6361   4.2261

          k = 0.5833-0.2500 1.0833 (  2722 PWs)   bands (ev):

    -2.8893  -0.3004   2.1923   3.4490

          k = 0.4167-0.0833 0.9167 (  2724 PWs)   bands (ev):

    -2.0715  -1.0261   2.0321   2.7939

          k =-0.2500-1.0833 0.2500 (  2726 PWs)   bands (ev):

    -2.2790  -0.9320   1.9079   3.6672

          k =-0.4167 0.4167 0.4167 (  2737 PWs)   bands (ev):

    -3.7887  -0.3307   4.8884   4.8884

          k = 0.4167-0.4167 1.2500 (  2730 PWs)   bands (ev):

    -3.1937  -0.6299   3.0899   4.4568

     highest occupied level (ev):     5.8762

!    total energy              =     -15.74190330 Ry
     estimated scf accuracy    <       0.00000017 Ry

     The total energy is the sum of the following terms:
     one-electron contribution =       4.61893781 Ry
     hartree contribution      =       1.11208361 Ry
     xc contribution           =      -4.79068942 Ry
     ewald contribution        =     -16.68223531 Ry

     convergence has been achieved in   5 iterations

     Forces acting on atoms (cartesian axes, Ry/au):

     atom    1 type  1   force =     0.00000000    0.00000000    0.00000000
     atom    2 type  1   force =    -0.00000000   -0.00000000   -0.00000000

     Total force =     0.000000     Total SCF correction =     0.000000


     Computing stress (Cartesian axis) and pressure

          total   stress  (Ry/bohr**3)                   (kbar)     P=        3.39
   0.00002307   0.00000000   0.00000000            3.39        0.00        0.00
   0.00000000   0.00002307   0.00000000            0.00        3.39        0.00
   0.00000000   0.00000000   0.00002307            0.00        0.00        3.39


     Writing all to output data dir ./Si2.save/
 
     init_run     :      1.25s CPU      1.32s WALL (       1 calls)
     electrons    :      9.49s CPU     10.07s WALL (       1 calls)
     forces       :      0.09s CPU      0.10s WALL (       1 calls)
     stress       :      0.81s CPU      0.82s WALL (       1 calls)

     Called by init_run:
     wfcinit      :      0.90s CPU      0.92s WALL (       1 calls)
     potinit      :      0.10s CPU      0.11s WALL (       1 calls)
     hinit0       :      0.19s CPU      0.21s WALL (       1 calls)

     Called by electrons:
     c_bands      :      7.57s CPU      8.06s WALL (       6 calls)
     sum_band     :      1.44s CPU      1.48s WALL (       6 calls)
     v_of_rho     :      0.55s CPU      0.57s WALL (       6 calls)
     mix_rho      :      0.02s CPU      0.03s WALL (       6 calls)

     Called by c_bands:
     init_us_2    :      0.63s CPU      0.66s WALL (     420 calls)
     init_us_2:cp :      0.62s CPU      0.66s WALL (     420 calls)
     cegterg      :      7.14s CPU      7.37s WALL (     168 calls)

     Called by *egterg:
     cdiaghg      :      0.18s CPU      0.19s WALL (     595 calls)
     h_psi        :      7.20s CPU      7.41s WALL (     651 calls)
     g_psi        :      0.03s CPU      0.03s WALL (     455 calls)

     Called by h_psi:
     h_psi:calbec :      0.15s CPU      0.16s WALL (     651 calls)
     vloc_psi     :      6.89s CPU      7.08s WALL (     651 calls)
     add_vuspsi   :      0.10s CPU      0.11s WALL (     651 calls)

     General routines
     calbec       :      0.16s CPU      0.18s WALL (     791 calls)
     fft          :      0.09s CPU      0.11s WALL (      68 calls)
     ffts         :      0.01s CPU      0.01s WALL (       6 calls)
     fftw         :      6.60s CPU      6.78s WALL (    5204 calls)
 
     Parallel routines
 
     PWSCF        :     11.87s CPU     12.97s WALL

 
   This run was terminated on:  18:38:23  18Feb2022            

=------------------------------------------------------------------------------=
   JOB DONE.
=------------------------------------------------------------------------------=
