
     Program PWSCF v.7.0 starts on 18Feb2022 at 18:41:24 

     This program is part of the open-source Quantum ESPRESSO suite
     for quantum simulation of materials; please cite
         "P. Giannozzi et al., J. Phys.:Condens. Matter 21 395502 (2009);
         "P. Giannozzi et al., J. Phys.:Condens. Matter 29 465901 (2017);
         "P. Giannozzi et al., J. Chem. Phys. 152 154105 (2020);
          URL http://www.quantum-espresso.org", 
     in publications or presentations arising from this work. More details at
     http://www.quantum-espresso.org/quote

     Parallel version (MPI), running on     1 processors

     MPI processes distributed on     1 nodes
     88201 MiB available memory on the printing compute node when the environment starts
 
     Reading input from Si.scf.140.in

     Current dimensions of program PWSCF are:
     Max number of different atomic species (ntypx) = 10
     Max number of k-points (npk) =  40000
     Max angular momentum in pseudopotentials (lmaxx) =  4

     Subspace diagonalization in iterative solution of the eigenvalue problem:
     a serial algorithm will be used

 
     G-vector sticks info
     --------------------
     sticks:   dense  smooth     PW     G-vecs:    dense   smooth      PW
     Sum        2065    2065    583                61719    61719    9409
 
     Using Slab Decomposition
 


     bravais-lattice index     =            2
     lattice parameter (alat)  =      10.3330  a.u.
     unit-cell volume          =     275.8159 (a.u.)^3
     number of atoms/cell      =            2
     number of atomic types    =            1
     number of electrons       =         8.00
     number of Kohn-Sham states=            4
     kinetic-energy cutoff     =     140.0000  Ry
     charge density cutoff     =     560.0000  Ry
     scf convergence threshold =      1.0E-06
     mixing beta               =       0.7000
     number of iterations used =            8  plain     mixing
     Exchange-correlation=  SLA  PW   PBE  PBE
                           (   1   4   3   4   0   0   0)

     celldm(1)=  10.333000  celldm(2)=   0.000000  celldm(3)=   0.000000
     celldm(4)=   0.000000  celldm(5)=   0.000000  celldm(6)=   0.000000

     crystal axes: (cart. coord. in units of alat)
               a(1) = (  -0.500000   0.000000   0.500000 )  
               a(2) = (   0.000000   0.500000   0.500000 )  
               a(3) = (  -0.500000   0.500000   0.000000 )  

     reciprocal axes: (cart. coord. in units 2 pi/alat)
               b(1) = ( -1.000000 -1.000000  1.000000 )  
               b(2) = (  1.000000  1.000000  1.000000 )  
               b(3) = ( -1.000000  1.000000 -1.000000 )  


     PseudoPot. # 1 for Si read from file:
     ./Si.pbe-rrkj.UPF
     MD5 check sum: cf7ab5690cd9a85b22c4813f7e365554
     Pseudo is Norm-conserving, Zval =  4.0
     Generated by new atomic code, or converted to UPF format
     Using radial grid of  883 points,  3 beta functions with: 
                l(1) =   0
                l(2) =   0
                l(3) =   1

     atomic species   valence    mass     pseudopotential
        Si             4.00    28.08600     Si( 1.00)

     48 Sym. Ops., with inversion, found (24 have fractional translation)



   Cartesian axes

     site n.     atom                  positions (alat units)
         1           Si  tau(   1) = (   0.0000000   0.0000000   0.0000000  )
         2           Si  tau(   2) = (   0.2500000   0.2500000   0.2500000  )

     number of k points=    28
                       cart. coord. in units 2pi/alat
        k(    1) = (  -0.0833333   0.0833333   0.0833333), wk =   0.0185185
        k(    2) = (  -0.2500000   0.2500000  -0.0833333), wk =   0.0555556
        k(    3) = (  -0.4166667   0.4166667  -0.2500000), wk =   0.0555556
        k(    4) = (   0.4166667  -0.4166667   0.5833333), wk =   0.0555556
        k(    5) = (   0.2500000  -0.2500000   0.4166667), wk =   0.0555556
        k(    6) = (   0.0833333  -0.0833333   0.2500000), wk =   0.0555556
        k(    7) = (  -0.0833333   0.4166667   0.0833333), wk =   0.0555556
        k(    8) = (  -0.2500000   0.5833333  -0.0833333), wk =   0.1111111
        k(    9) = (   0.5833333  -0.2500000   0.7500000), wk =   0.1111111
        k(   10) = (   0.4166667  -0.0833333   0.5833333), wk =   0.1111111
        k(   11) = (   0.2500000   0.0833333   0.4166667), wk =   0.1111111
        k(   12) = (  -0.0833333   0.7500000   0.0833333), wk =   0.0555556
        k(   13) = (   0.7500000  -0.0833333   0.9166667), wk =   0.1111111
        k(   14) = (   0.5833333   0.0833333   0.7500000), wk =   0.1111111
        k(   15) = (   0.4166667   0.2500000   0.5833333), wk =   0.1111111
        k(   16) = (  -0.0833333  -0.9166667   0.0833333), wk =   0.0555556
        k(   17) = (  -0.2500000  -0.7500000  -0.0833333), wk =   0.1111111
        k(   18) = (  -0.0833333  -0.5833333   0.0833333), wk =   0.0555556
        k(   19) = (  -0.2500000   0.2500000   0.2500000), wk =   0.0185185
        k(   20) = (  -0.4166667   0.4166667   0.0833333), wk =   0.0555556
        k(   21) = (   0.4166667  -0.4166667   0.9166667), wk =   0.0555556
        k(   22) = (   0.2500000  -0.2500000   0.7500000), wk =   0.0555556
        k(   23) = (  -0.2500000   0.5833333   0.2500000), wk =   0.0555556
        k(   24) = (   0.5833333  -0.2500000   1.0833333), wk =   0.1111111
        k(   25) = (   0.4166667  -0.0833333   0.9166667), wk =   0.1111111
        k(   26) = (  -0.2500000  -1.0833333   0.2500000), wk =   0.0555556
        k(   27) = (  -0.4166667   0.4166667   0.4166667), wk =   0.0185185
        k(   28) = (   0.4166667  -0.4166667   1.2500000), wk =   0.0555556

     Dense  grid:    61719 G-vectors     FFT dimensions: (  60,  60,  60)

     Estimated max dynamical RAM per process >      57.54 MB

     Initial potential from superposition of free atoms

     starting charge       7.9989, renormalised to       8.0000
     Starting wfcs are    8 randomized atomic wfcs

     total cpu time spent up to now is        4.2 secs

     Self-consistent Calculation

     iteration #  1     ecut=   140.00 Ry     beta= 0.70
     Davidson diagonalization with overlap
     ethr =  1.00E-02,  avg # of iterations =  2.0

     Threshold (ethr) on eigenvalues was too large:
     Diagonalizing with lowered threshold

     Davidson diagonalization with overlap
     ethr =  5.67E-04,  avg # of iterations =  2.0

     total cpu time spent up to now is       14.0 secs

     total energy              =     -15.73952623 Ry
     estimated scf accuracy    <       0.05344484 Ry

     iteration #  2     ecut=   140.00 Ry     beta= 0.70
     Davidson diagonalization with overlap
     ethr =  6.68E-04,  avg # of iterations =  1.0

     total cpu time spent up to now is       18.0 secs

     total energy              =     -15.74122574 Ry
     estimated scf accuracy    <       0.00312067 Ry

     iteration #  3     ecut=   140.00 Ry     beta= 0.70
     Davidson diagonalization with overlap
     ethr =  3.90E-05,  avg # of iterations =  2.2

     total cpu time spent up to now is       23.2 secs

     total energy              =     -15.74183802 Ry
     estimated scf accuracy    <       0.00009481 Ry

     iteration #  4     ecut=   140.00 Ry     beta= 0.70
     Davidson diagonalization with overlap
     ethr =  1.19E-06,  avg # of iterations =  4.5

     total cpu time spent up to now is       29.9 secs

     total energy              =     -15.74190627 Ry
     estimated scf accuracy    <       0.00000648 Ry

     iteration #  5     ecut=   140.00 Ry     beta= 0.70
     Davidson diagonalization with overlap
     ethr =  8.10E-08,  avg # of iterations =  3.9

     total cpu time spent up to now is       36.1 secs

     End of self-consistent calculation

          k =-0.0833 0.0833 0.0833 (  7733 PWs)   bands (ev):

    -5.6573   5.1712   5.8763   5.8763

          k =-0.2500 0.2500-0.0833 (  7704 PWs)   bands (ev):

    -5.1877   3.1205   4.6655   5.6679

          k =-0.4167 0.4167-0.2500 (  7724 PWs)   bands (ev):

    -4.1122   0.4008   4.2063   5.0411

          k = 0.4167-0.4167 0.5833 (  7713 PWs)   bands (ev):

    -3.4257  -0.7248   4.2704   4.6674

          k = 0.2500-0.2500 0.4167 (  7720 PWs)   bands (ev):

    -4.5175   1.2343   4.7282   4.7617

          k = 0.0833-0.0833 0.2500 (  7714 PWs)   bands (ev):

    -5.4202   4.1166   5.2431   5.4253

          k =-0.0833 0.4167 0.0833 (  7705 PWs)   bands (ev):

    -4.9501   2.9318   4.5109   4.5252

          k =-0.2500 0.5833-0.0833 (  7715 PWs)   bands (ev):

    -4.0535   1.1190   3.2168   4.1449

          k = 0.5833-0.2500 0.7500 (  7711 PWs)   bands (ev):

    -2.9556  -0.6023   2.6238   3.9217

          k = 0.4167-0.0833 0.5833 (  7709 PWs)   bands (ev):

    -3.6653   0.4375   2.5848   4.3992

          k = 0.2500 0.0833 0.4167 (  7718 PWs)   bands (ev):

    -4.7281   2.1093   3.9022   5.0547

          k =-0.0833 0.7500 0.0833 (  7730 PWs)   bands (ev):

    -3.3526   0.3017   3.1801   3.5114

          k = 0.7500-0.0833 0.9167 (  7726 PWs)   bands (ev):

    -2.1756  -1.0182   2.3551   3.1144

          k = 0.5833 0.0833 0.7500 (  7708 PWs)   bands (ev):

    -2.5420  -0.6855   1.8803   3.6507

          k = 0.4167 0.2500 0.5833 (  7721 PWs)   bands (ev):

    -3.5555  -0.2330   3.5079   4.4942

          k =-0.0833-0.9167 0.0833 (  7734 PWs)   bands (ev):

    -2.2654  -1.0258   2.9147   3.2991

          k =-0.2500-0.7500-0.0833 (  7726 PWs)   bands (ev):

    -3.1869   0.0820   2.6707   3.4493

          k =-0.0833-0.5833 0.0833 (  7725 PWs)   bands (ev):

    -4.2558   1.6477   3.7160   3.9277

          k =-0.2500 0.2500 0.2500 (  7702 PWs)   bands (ev):

    -4.9616   2.1576   5.2724   5.2724

          k =-0.4167 0.4167 0.0833 (  7719 PWs)   bands (ev):

    -4.2928   1.2344   3.1819   5.1046

          k = 0.4167-0.4167 0.9167 (  7704 PWs)   bands (ev):

    -3.1325  -0.1869   2.0939   4.3325

          k = 0.2500-0.2500 0.7500 (  7707 PWs)   bands (ev):

    -3.0809  -0.2651   2.5638   3.8589

          k =-0.2500 0.5833 0.2500 (  7717 PWs)   bands (ev):

    -3.8754   0.4398   3.6362   4.2262

          k = 0.5833-0.2500 1.0833 (  7716 PWs)   bands (ev):

    -2.8892  -0.3002   2.1924   3.4491

          k = 0.4167-0.0833 0.9167 (  7711 PWs)   bands (ev):

    -2.0714  -1.0260   2.0322   2.7940

          k =-0.2500-1.0833 0.2500 (  7718 PWs)   bands (ev):

    -2.2788  -0.9319   1.9080   3.6673

          k =-0.4167 0.4167 0.4167 (  7696 PWs)   bands (ev):

    -3.7886  -0.3306   4.8885   4.8885

          k = 0.4167-0.4167 1.2500 (  7713 PWs)   bands (ev):

    -3.1936  -0.6298   3.0900   4.4569

     highest occupied level (ev):     5.8763

!    total energy              =     -15.74190956 Ry
     estimated scf accuracy    <       0.00000019 Ry

     The total energy is the sum of the following terms:
     one-electron contribution =       4.61891533 Ry
     hartree contribution      =       1.11211437 Ry
     xc contribution           =      -4.79070395 Ry
     ewald contribution        =     -16.68223531 Ry

     convergence has been achieved in   5 iterations

     Forces acting on atoms (cartesian axes, Ry/au):

     atom    1 type  1   force =     0.00000000    0.00000000   -0.00000000
     atom    2 type  1   force =    -0.00000000   -0.00000000   -0.00000000

     Total force =     0.000000     Total SCF correction =     0.000000


     Computing stress (Cartesian axis) and pressure

          total   stress  (Ry/bohr**3)                   (kbar)     P=        3.41
   0.00002318   0.00000000  -0.00000000            3.41        0.00       -0.00
  -0.00000000   0.00002318   0.00000000           -0.00        3.41        0.00
  -0.00000000   0.00000000   0.00002318           -0.00        0.00        3.41


     Writing all to output data dir ./Si2.save/
 
     init_run     :      3.78s CPU      3.90s WALL (       1 calls)
     electrons    :     31.21s CPU     31.92s WALL (       1 calls)
     forces       :      0.24s CPU      0.25s WALL (       1 calls)
     stress       :      2.38s CPU      2.40s WALL (       1 calls)

     Called by init_run:
     wfcinit      :      2.99s CPU      3.04s WALL (       1 calls)
     potinit      :      0.33s CPU      0.36s WALL (       1 calls)
     hinit0       :      0.26s CPU      0.28s WALL (       1 calls)

     Called by electrons:
     c_bands      :     24.74s CPU     25.31s WALL (       6 calls)
     sum_band     :      4.83s CPU      4.88s WALL (       6 calls)
     v_of_rho     :      1.86s CPU      1.92s WALL (       6 calls)
     mix_rho      :      0.06s CPU      0.08s WALL (       6 calls)

     Called by c_bands:
     init_us_2    :      1.79s CPU      1.82s WALL (     420 calls)
     init_us_2:cp :      1.78s CPU      1.81s WALL (     420 calls)
     cegterg      :     23.61s CPU     23.92s WALL (     168 calls)

     Called by *egterg:
     cdiaghg      :      0.18s CPU      0.20s WALL (     575 calls)
     h_psi        :     24.72s CPU     24.98s WALL (     631 calls)
     g_psi        :      0.08s CPU      0.09s WALL (     435 calls)

     Called by h_psi:
     h_psi:calbec :      0.28s CPU      0.29s WALL (     631 calls)
     vloc_psi     :     23.96s CPU     24.18s WALL (     631 calls)
     add_vuspsi   :      0.37s CPU      0.40s WALL (     631 calls)

     General routines
     calbec       :      0.32s CPU      0.35s WALL (     771 calls)
     fft          :      0.31s CPU      0.33s WALL (      68 calls)
     ffts         :      0.03s CPU      0.03s WALL (       6 calls)
     fftw         :     23.33s CPU     23.46s WALL (    5088 calls)
 
     Parallel routines
 
     PWSCF        :     37.88s CPU     39.23s WALL

 
   This run was terminated on:  18:42: 4  18Feb2022            

=------------------------------------------------------------------------------=
   JOB DONE.
=------------------------------------------------------------------------------=
