
     Program PWSCF v.7.0 starts on 18Feb2022 at 18:38:24 

     This program is part of the open-source Quantum ESPRESSO suite
     for quantum simulation of materials; please cite
         "P. Giannozzi et al., J. Phys.:Condens. Matter 21 395502 (2009);
         "P. Giannozzi et al., J. Phys.:Condens. Matter 29 465901 (2017);
         "P. Giannozzi et al., J. Chem. Phys. 152 154105 (2020);
          URL http://www.quantum-espresso.org", 
     in publications or presentations arising from this work. More details at
     http://www.quantum-espresso.org/quote

     Parallel version (MPI), running on     1 processors

     MPI processes distributed on     1 nodes
     88215 MiB available memory on the printing compute node when the environment starts
 
     Reading input from Si.scf.80.in

     Current dimensions of program PWSCF are:
     Max number of different atomic species (ntypx) = 10
     Max number of k-points (npk) =  40000
     Max angular momentum in pseudopotentials (lmaxx) =  4

     Subspace diagonalization in iterative solution of the eigenvalue problem:
     a serial algorithm will be used

 
     G-vector sticks info
     --------------------
     sticks:   dense  smooth     PW     G-vecs:    dense   smooth      PW
     Sum        1165    1165    349                26565    26565    4285
 
     Using Slab Decomposition
 


     bravais-lattice index     =            2
     lattice parameter (alat)  =      10.3330  a.u.
     unit-cell volume          =     275.8159 (a.u.)^3
     number of atoms/cell      =            2
     number of atomic types    =            1
     number of electrons       =         8.00
     number of Kohn-Sham states=            4
     kinetic-energy cutoff     =      80.0000  Ry
     charge density cutoff     =     320.0000  Ry
     scf convergence threshold =      1.0E-06
     mixing beta               =       0.7000
     number of iterations used =            8  plain     mixing
     Exchange-correlation=  SLA  PW   PBE  PBE
                           (   1   4   3   4   0   0   0)

     celldm(1)=  10.333000  celldm(2)=   0.000000  celldm(3)=   0.000000
     celldm(4)=   0.000000  celldm(5)=   0.000000  celldm(6)=   0.000000

     crystal axes: (cart. coord. in units of alat)
               a(1) = (  -0.500000   0.000000   0.500000 )  
               a(2) = (   0.000000   0.500000   0.500000 )  
               a(3) = (  -0.500000   0.500000   0.000000 )  

     reciprocal axes: (cart. coord. in units 2 pi/alat)
               b(1) = ( -1.000000 -1.000000  1.000000 )  
               b(2) = (  1.000000  1.000000  1.000000 )  
               b(3) = ( -1.000000  1.000000 -1.000000 )  


     PseudoPot. # 1 for Si read from file:
     ./Si.pbe-rrkj.UPF
     MD5 check sum: cf7ab5690cd9a85b22c4813f7e365554
     Pseudo is Norm-conserving, Zval =  4.0
     Generated by new atomic code, or converted to UPF format
     Using radial grid of  883 points,  3 beta functions with: 
                l(1) =   0
                l(2) =   0
                l(3) =   1

     atomic species   valence    mass     pseudopotential
        Si             4.00    28.08600     Si( 1.00)

     48 Sym. Ops., with inversion, found (24 have fractional translation)



   Cartesian axes

     site n.     atom                  positions (alat units)
         1           Si  tau(   1) = (   0.0000000   0.0000000   0.0000000  )
         2           Si  tau(   2) = (   0.2500000   0.2500000   0.2500000  )

     number of k points=    28
                       cart. coord. in units 2pi/alat
        k(    1) = (  -0.0833333   0.0833333   0.0833333), wk =   0.0185185
        k(    2) = (  -0.2500000   0.2500000  -0.0833333), wk =   0.0555556
        k(    3) = (  -0.4166667   0.4166667  -0.2500000), wk =   0.0555556
        k(    4) = (   0.4166667  -0.4166667   0.5833333), wk =   0.0555556
        k(    5) = (   0.2500000  -0.2500000   0.4166667), wk =   0.0555556
        k(    6) = (   0.0833333  -0.0833333   0.2500000), wk =   0.0555556
        k(    7) = (  -0.0833333   0.4166667   0.0833333), wk =   0.0555556
        k(    8) = (  -0.2500000   0.5833333  -0.0833333), wk =   0.1111111
        k(    9) = (   0.5833333  -0.2500000   0.7500000), wk =   0.1111111
        k(   10) = (   0.4166667  -0.0833333   0.5833333), wk =   0.1111111
        k(   11) = (   0.2500000   0.0833333   0.4166667), wk =   0.1111111
        k(   12) = (  -0.0833333   0.7500000   0.0833333), wk =   0.0555556
        k(   13) = (   0.7500000  -0.0833333   0.9166667), wk =   0.1111111
        k(   14) = (   0.5833333   0.0833333   0.7500000), wk =   0.1111111
        k(   15) = (   0.4166667   0.2500000   0.5833333), wk =   0.1111111
        k(   16) = (  -0.0833333  -0.9166667   0.0833333), wk =   0.0555556
        k(   17) = (  -0.2500000  -0.7500000  -0.0833333), wk =   0.1111111
        k(   18) = (  -0.0833333  -0.5833333   0.0833333), wk =   0.0555556
        k(   19) = (  -0.2500000   0.2500000   0.2500000), wk =   0.0185185
        k(   20) = (  -0.4166667   0.4166667   0.0833333), wk =   0.0555556
        k(   21) = (   0.4166667  -0.4166667   0.9166667), wk =   0.0555556
        k(   22) = (   0.2500000  -0.2500000   0.7500000), wk =   0.0555556
        k(   23) = (  -0.2500000   0.5833333   0.2500000), wk =   0.0555556
        k(   24) = (   0.5833333  -0.2500000   1.0833333), wk =   0.1111111
        k(   25) = (   0.4166667  -0.0833333   0.9166667), wk =   0.1111111
        k(   26) = (  -0.2500000  -1.0833333   0.2500000), wk =   0.0555556
        k(   27) = (  -0.4166667   0.4166667   0.4166667), wk =   0.0185185
        k(   28) = (   0.4166667  -0.4166667   1.2500000), wk =   0.0555556

     Dense  grid:    26565 G-vectors     FFT dimensions: (  48,  48,  48)

     Estimated max dynamical RAM per process >      26.11 MB

     Initial potential from superposition of free atoms

     starting charge       7.9989, renormalised to       8.0000
     Starting wfcs are    8 randomized atomic wfcs

     total cpu time spent up to now is        2.2 secs

     Self-consistent Calculation

     iteration #  1     ecut=    80.00 Ry     beta= 0.70
     Davidson diagonalization with overlap
     ethr =  1.00E-02,  avg # of iterations =  2.0

     Threshold (ethr) on eigenvalues was too large:
     Diagonalizing with lowered threshold

     Davidson diagonalization with overlap
     ethr =  5.68E-04,  avg # of iterations =  1.9

     total cpu time spent up to now is        6.8 secs

     total energy              =     -15.73953714 Ry
     estimated scf accuracy    <       0.05349472 Ry

     iteration #  2     ecut=    80.00 Ry     beta= 0.70
     Davidson diagonalization with overlap
     ethr =  6.69E-04,  avg # of iterations =  1.0

     total cpu time spent up to now is        8.8 secs

     total energy              =     -15.74123082 Ry
     estimated scf accuracy    <       0.00311241 Ry

     iteration #  3     ecut=    80.00 Ry     beta= 0.70
     Davidson diagonalization with overlap
     ethr =  3.89E-05,  avg # of iterations =  2.1

     total cpu time spent up to now is       11.3 secs

     total energy              =     -15.74183195 Ry
     estimated scf accuracy    <       0.00009242 Ry

     iteration #  4     ecut=    80.00 Ry     beta= 0.70
     Davidson diagonalization with overlap
     ethr =  1.16E-06,  avg # of iterations =  4.6

     total cpu time spent up to now is       14.6 secs

     total energy              =     -15.74190282 Ry
     estimated scf accuracy    <       0.00000542 Ry

     iteration #  5     ecut=    80.00 Ry     beta= 0.70
     Davidson diagonalization with overlap
     ethr =  6.77E-08,  avg # of iterations =  3.9

     total cpu time spent up to now is       17.6 secs

     End of self-consistent calculation

          k =-0.0833 0.0833 0.0833 (  3356 PWs)   bands (ev):

    -5.6574   5.1711   5.8762   5.8762

          k =-0.2500 0.2500-0.0833 (  3339 PWs)   bands (ev):

    -5.1878   3.1204   4.6654   5.6678

          k =-0.4167 0.4167-0.2500 (  3337 PWs)   bands (ev):

    -4.1123   0.4007   4.2063   5.0410

          k = 0.4167-0.4167 0.5833 (  3328 PWs)   bands (ev):

    -3.4258  -0.7249   4.2703   4.6673

          k = 0.2500-0.2500 0.4167 (  3344 PWs)   bands (ev):

    -4.5176   1.2342   4.7282   4.7616

          k = 0.0833-0.0833 0.2500 (  3344 PWs)   bands (ev):

    -5.4203   4.1165   5.2431   5.4252

          k =-0.0833 0.4167 0.0833 (  3345 PWs)   bands (ev):

    -4.9502   2.9317   4.5109   4.5251

          k =-0.2500 0.5833-0.0833 (  3340 PWs)   bands (ev):

    -4.0536   1.1189   3.2167   4.1448

          k = 0.5833-0.2500 0.7500 (  3326 PWs)   bands (ev):

    -2.9557  -0.6024   2.6238   3.9216

          k = 0.4167-0.0833 0.5833 (  3339 PWs)   bands (ev):

    -3.6654   0.4374   2.5848   4.3992

          k = 0.2500 0.0833 0.4167 (  3347 PWs)   bands (ev):

    -4.7281   2.1092   3.9021   5.0546

          k =-0.0833 0.7500 0.0833 (  3348 PWs)   bands (ev):

    -3.3527   0.3016   3.1800   3.5114

          k = 0.7500-0.0833 0.9167 (  3328 PWs)   bands (ev):

    -2.1757  -1.0183   2.3551   3.1143

          k = 0.5833 0.0833 0.7500 (  3316 PWs)   bands (ev):

    -2.5421  -0.6856   1.8802   3.6507

          k = 0.4167 0.2500 0.5833 (  3333 PWs)   bands (ev):

    -3.5556  -0.2330   3.5078   4.4941

          k =-0.0833-0.9167 0.0833 (  3325 PWs)   bands (ev):

    -2.2654  -1.0259   2.9146   3.2990

          k =-0.2500-0.7500-0.0833 (  3337 PWs)   bands (ev):

    -3.1870   0.0820   2.6706   3.4492

          k =-0.0833-0.5833 0.0833 (  3340 PWs)   bands (ev):

    -4.2559   1.6476   3.7159   3.9277

          k =-0.2500 0.2500 0.2500 (  3353 PWs)   bands (ev):

    -4.9617   2.1576   5.2723   5.2723

          k =-0.4167 0.4167 0.0833 (  3349 PWs)   bands (ev):

    -4.2929   1.2343   3.1819   5.1046

          k = 0.4167-0.4167 0.9167 (  3324 PWs)   bands (ev):

    -3.1326  -0.1870   2.0939   4.3324

          k = 0.2500-0.2500 0.7500 (  3323 PWs)   bands (ev):

    -3.0809  -0.2652   2.5638   3.8588

          k =-0.2500 0.5833 0.2500 (  3326 PWs)   bands (ev):

    -3.8754   0.4397   3.6362   4.2262

          k = 0.5833-0.2500 1.0833 (  3320 PWs)   bands (ev):

    -2.8892  -0.3003   2.1924   3.4490

          k = 0.4167-0.0833 0.9167 (  3326 PWs)   bands (ev):

    -2.0715  -1.0260   2.0321   2.7939

          k =-0.2500-1.0833 0.2500 (  3319 PWs)   bands (ev):

    -2.2789  -0.9319   1.9079   3.6672

          k =-0.4167 0.4167 0.4167 (  3338 PWs)   bands (ev):

    -3.7886  -0.3307   4.8884   4.8884

          k = 0.4167-0.4167 1.2500 (  3323 PWs)   bands (ev):

    -3.1937  -0.6298   3.0900   4.4568

     highest occupied level (ev):     5.8762

!    total energy              =     -15.74190580 Ry
     estimated scf accuracy    <       0.00000016 Ry

     The total energy is the sum of the following terms:
     one-electron contribution =       4.61889973 Ry
     hartree contribution      =       1.11214609 Ry
     xc contribution           =      -4.79071632 Ry
     ewald contribution        =     -16.68223531 Ry

     convergence has been achieved in   5 iterations

     Forces acting on atoms (cartesian axes, Ry/au):

     atom    1 type  1   force =     0.00000000    0.00000000    0.00000000
     atom    2 type  1   force =     0.00000000    0.00000000    0.00000000

     Total force =     0.000000     Total SCF correction =     0.000000


     Computing stress (Cartesian axis) and pressure

          total   stress  (Ry/bohr**3)                   (kbar)     P=        3.43
   0.00002332   0.00000000   0.00000000            3.43        0.00        0.00
   0.00000000   0.00002332   0.00000000            0.00        3.43        0.00
   0.00000000   0.00000000   0.00002332            0.00        0.00        3.43


     Writing all to output data dir ./Si2.save/
 
     init_run     :      1.84s CPU      1.93s WALL (       1 calls)
     electrons    :     14.74s CPU     15.37s WALL (       1 calls)
     forces       :      0.11s CPU      0.12s WALL (       1 calls)
     stress       :      1.02s CPU      1.04s WALL (       1 calls)

     Called by init_run:
     wfcinit      :      1.38s CPU      1.43s WALL (       1 calls)
     potinit      :      0.16s CPU      0.18s WALL (       1 calls)
     hinit0       :      0.21s CPU      0.22s WALL (       1 calls)

     Called by electrons:
     c_bands      :     11.66s CPU     12.19s WALL (       6 calls)
     sum_band     :      2.27s CPU      2.31s WALL (       6 calls)
     v_of_rho     :      0.93s CPU      0.96s WALL (       6 calls)
     mix_rho      :      0.03s CPU      0.04s WALL (       6 calls)

     Called by c_bands:
     init_us_2    :      0.76s CPU      0.80s WALL (     420 calls)
     init_us_2:cp :      0.75s CPU      0.79s WALL (     420 calls)
     cegterg      :     11.14s CPU     11.41s WALL (     168 calls)

     Called by *egterg:
     cdiaghg      :      0.17s CPU      0.19s WALL (     574 calls)
     h_psi        :     11.61s CPU     11.85s WALL (     630 calls)
     g_psi        :      0.03s CPU      0.04s WALL (     434 calls)

     Called by h_psi:
     h_psi:calbec :      0.17s CPU      0.18s WALL (     630 calls)
     vloc_psi     :     11.25s CPU     11.48s WALL (     630 calls)
     add_vuspsi   :      0.13s CPU      0.14s WALL (     630 calls)

     General routines
     calbec       :      0.18s CPU      0.20s WALL (     770 calls)
     fft          :      0.15s CPU      0.17s WALL (      68 calls)
     ffts         :      0.01s CPU      0.01s WALL (       6 calls)
     fftw         :     10.89s CPU     11.07s WALL (    5106 calls)
 
     Parallel routines
 
     PWSCF        :     17.96s CPU     19.11s WALL

 
   This run was terminated on:  18:38:43  18Feb2022            

=------------------------------------------------------------------------------=
   JOB DONE.
=------------------------------------------------------------------------------=
