
     Program PWSCF v.7.0 starts on 18Feb2022 at 18:37:27 

     This program is part of the open-source Quantum ESPRESSO suite
     for quantum simulation of materials; please cite
         "P. Giannozzi et al., J. Phys.:Condens. Matter 21 395502 (2009);
         "P. Giannozzi et al., J. Phys.:Condens. Matter 29 465901 (2017);
         "P. Giannozzi et al., J. Chem. Phys. 152 154105 (2020);
          URL http://www.quantum-espresso.org", 
     in publications or presentations arising from this work. More details at
     http://www.quantum-espresso.org/quote

     Parallel version (MPI), running on     1 processors

     MPI processes distributed on     1 nodes
     88224 MiB available memory on the printing compute node when the environment starts
 
     Reading input from Si.scf.20.in

     Current dimensions of program PWSCF are:
     Max number of different atomic species (ntypx) = 10
     Max number of k-points (npk) =  40000
     Max angular momentum in pseudopotentials (lmaxx) =  4

     Subspace diagonalization in iterative solution of the eigenvalue problem:
     a serial algorithm will be used

 
     G-vector sticks info
     --------------------
     sticks:   dense  smooth     PW     G-vecs:    dense   smooth      PW
     Sum         301     301    109                 3383     3383     725
 
     Using Slab Decomposition
 


     bravais-lattice index     =            2
     lattice parameter (alat)  =      10.3330  a.u.
     unit-cell volume          =     275.8159 (a.u.)^3
     number of atoms/cell      =            2
     number of atomic types    =            1
     number of electrons       =         8.00
     number of Kohn-Sham states=            4
     kinetic-energy cutoff     =      20.0000  Ry
     charge density cutoff     =      80.0000  Ry
     scf convergence threshold =      1.0E-06
     mixing beta               =       0.7000
     number of iterations used =            8  plain     mixing
     Exchange-correlation=  SLA  PW   PBE  PBE
                           (   1   4   3   4   0   0   0)

     celldm(1)=  10.333000  celldm(2)=   0.000000  celldm(3)=   0.000000
     celldm(4)=   0.000000  celldm(5)=   0.000000  celldm(6)=   0.000000

     crystal axes: (cart. coord. in units of alat)
               a(1) = (  -0.500000   0.000000   0.500000 )  
               a(2) = (   0.000000   0.500000   0.500000 )  
               a(3) = (  -0.500000   0.500000   0.000000 )  

     reciprocal axes: (cart. coord. in units 2 pi/alat)
               b(1) = ( -1.000000 -1.000000  1.000000 )  
               b(2) = (  1.000000  1.000000  1.000000 )  
               b(3) = ( -1.000000  1.000000 -1.000000 )  


     PseudoPot. # 1 for Si read from file:
     ./Si.pbe-rrkj.UPF
     MD5 check sum: cf7ab5690cd9a85b22c4813f7e365554
     Pseudo is Norm-conserving, Zval =  4.0
     Generated by new atomic code, or converted to UPF format
     Using radial grid of  883 points,  3 beta functions with: 
                l(1) =   0
                l(2) =   0
                l(3) =   1

     atomic species   valence    mass     pseudopotential
        Si             4.00    28.08600     Si( 1.00)

     48 Sym. Ops., with inversion, found (24 have fractional translation)



   Cartesian axes

     site n.     atom                  positions (alat units)
         1           Si  tau(   1) = (   0.0000000   0.0000000   0.0000000  )
         2           Si  tau(   2) = (   0.2500000   0.2500000   0.2500000  )

     number of k points=    28
                       cart. coord. in units 2pi/alat
        k(    1) = (  -0.0833333   0.0833333   0.0833333), wk =   0.0185185
        k(    2) = (  -0.2500000   0.2500000  -0.0833333), wk =   0.0555556
        k(    3) = (  -0.4166667   0.4166667  -0.2500000), wk =   0.0555556
        k(    4) = (   0.4166667  -0.4166667   0.5833333), wk =   0.0555556
        k(    5) = (   0.2500000  -0.2500000   0.4166667), wk =   0.0555556
        k(    6) = (   0.0833333  -0.0833333   0.2500000), wk =   0.0555556
        k(    7) = (  -0.0833333   0.4166667   0.0833333), wk =   0.0555556
        k(    8) = (  -0.2500000   0.5833333  -0.0833333), wk =   0.1111111
        k(    9) = (   0.5833333  -0.2500000   0.7500000), wk =   0.1111111
        k(   10) = (   0.4166667  -0.0833333   0.5833333), wk =   0.1111111
        k(   11) = (   0.2500000   0.0833333   0.4166667), wk =   0.1111111
        k(   12) = (  -0.0833333   0.7500000   0.0833333), wk =   0.0555556
        k(   13) = (   0.7500000  -0.0833333   0.9166667), wk =   0.1111111
        k(   14) = (   0.5833333   0.0833333   0.7500000), wk =   0.1111111
        k(   15) = (   0.4166667   0.2500000   0.5833333), wk =   0.1111111
        k(   16) = (  -0.0833333  -0.9166667   0.0833333), wk =   0.0555556
        k(   17) = (  -0.2500000  -0.7500000  -0.0833333), wk =   0.1111111
        k(   18) = (  -0.0833333  -0.5833333   0.0833333), wk =   0.0555556
        k(   19) = (  -0.2500000   0.2500000   0.2500000), wk =   0.0185185
        k(   20) = (  -0.4166667   0.4166667   0.0833333), wk =   0.0555556
        k(   21) = (   0.4166667  -0.4166667   0.9166667), wk =   0.0555556
        k(   22) = (   0.2500000  -0.2500000   0.7500000), wk =   0.0555556
        k(   23) = (  -0.2500000   0.5833333   0.2500000), wk =   0.0555556
        k(   24) = (   0.5833333  -0.2500000   1.0833333), wk =   0.1111111
        k(   25) = (   0.4166667  -0.0833333   0.9166667), wk =   0.1111111
        k(   26) = (  -0.2500000  -1.0833333   0.2500000), wk =   0.0555556
        k(   27) = (  -0.4166667   0.4166667   0.4166667), wk =   0.0185185
        k(   28) = (   0.4166667  -0.4166667   1.2500000), wk =   0.0555556

     Dense  grid:     3383 G-vectors     FFT dimensions: (  24,  24,  24)

     Estimated max dynamical RAM per process >       3.39 MB

     Initial potential from superposition of free atoms

     starting charge       7.9989, renormalised to       8.0000
     Starting wfcs are    8 randomized atomic wfcs

     total cpu time spent up to now is        0.7 secs

     Self-consistent Calculation

     iteration #  1     ecut=    20.00 Ry     beta= 0.70
     Davidson diagonalization with overlap
     ethr =  1.00E-02,  avg # of iterations =  2.0

     Threshold (ethr) on eigenvalues was too large:
     Diagonalizing with lowered threshold

     Davidson diagonalization with overlap
     ethr =  5.68E-04,  avg # of iterations =  2.0

     total cpu time spent up to now is        1.4 secs

     total energy              =     -15.73887149 Ry
     estimated scf accuracy    <       0.05385032 Ry

     iteration #  2     ecut=    20.00 Ry     beta= 0.70
     Davidson diagonalization with overlap
     ethr =  6.73E-04,  avg # of iterations =  1.0

     total cpu time spent up to now is        1.7 secs

     total energy              =     -15.74059980 Ry
     estimated scf accuracy    <       0.00304544 Ry

     iteration #  3     ecut=    20.00 Ry     beta= 0.70
     Davidson diagonalization with overlap
     ethr =  3.81E-05,  avg # of iterations =  2.0

     total cpu time spent up to now is        2.1 secs

     total energy              =     -15.74118281 Ry
     estimated scf accuracy    <       0.00008881 Ry

     iteration #  4     ecut=    20.00 Ry     beta= 0.70
     Davidson diagonalization with overlap
     ethr =  1.11E-06,  avg # of iterations =  4.7

     total cpu time spent up to now is        2.7 secs

     total energy              =     -15.74125637 Ry
     estimated scf accuracy    <       0.00000361 Ry

     iteration #  5     ecut=    20.00 Ry     beta= 0.70
     Davidson diagonalization with overlap
     ethr =  4.51E-08,  avg # of iterations =  4.4

     total cpu time spent up to now is        3.2 secs

     End of self-consistent calculation

          k =-0.0833 0.0833 0.0833 (   417 PWs)   bands (ev):

    -5.6565   5.1721   5.8774   5.8774

          k =-0.2500 0.2500-0.0833 (   408 PWs)   bands (ev):

    -5.1870   3.1216   4.6668   5.6694

          k =-0.4167 0.4167-0.2500 (   415 PWs)   bands (ev):

    -4.1115   0.4015   4.2076   5.0424

          k = 0.4167-0.4167 0.5833 (   413 PWs)   bands (ev):

    -3.4250  -0.7241   4.2714   4.6687

          k = 0.2500-0.2500 0.4167 (   415 PWs)   bands (ev):

    -4.5169   1.2352   4.7295   4.7630

          k = 0.0833-0.0833 0.2500 (   411 PWs)   bands (ev):

    -5.4195   4.1179   5.2444   5.4266

          k =-0.0833 0.4167 0.0833 (   417 PWs)   bands (ev):

    -4.9494   2.9328   4.5121   4.5265

          k =-0.2500 0.5833-0.0833 (   415 PWs)   bands (ev):

    -4.0529   1.1199   3.2179   4.1461

          k = 0.5833-0.2500 0.7500 (   418 PWs)   bands (ev):

    -2.9549  -0.6016   2.6248   3.9227

          k = 0.4167-0.0833 0.5833 (   417 PWs)   bands (ev):

    -3.6647   0.4383   2.5858   4.4004

          k = 0.2500 0.0833 0.4167 (   416 PWs)   bands (ev):

    -4.7274   2.1103   3.9033   5.0561

          k =-0.0833 0.7500 0.0833 (   426 PWs)   bands (ev):

    -3.3520   0.3025   3.1812   3.5124

          k = 0.7500-0.0833 0.9167 (   422 PWs)   bands (ev):

    -2.1749  -1.0174   2.3561   3.1155

          k = 0.5833 0.0833 0.7500 (   415 PWs)   bands (ev):

    -2.5413  -0.6847   1.8812   3.6518

          k = 0.4167 0.2500 0.5833 (   419 PWs)   bands (ev):

    -3.5548  -0.2323   3.5089   4.4953

          k =-0.0833-0.9167 0.0833 (   423 PWs)   bands (ev):

    -2.2646  -1.0250   2.9159   3.3001

          k =-0.2500-0.7500-0.0833 (   418 PWs)   bands (ev):

    -3.1862   0.0829   2.6717   3.4504

          k =-0.0833-0.5833 0.0833 (   423 PWs)   bands (ev):

    -4.2552   1.6485   3.7171   3.9288

          k =-0.2500 0.2500 0.2500 (   410 PWs)   bands (ev):

    -4.9609   2.1587   5.2738   5.2738

          k =-0.4167 0.4167 0.0833 (   416 PWs)   bands (ev):

    -4.2922   1.2353   3.1830   5.1059

          k = 0.4167-0.4167 0.9167 (   416 PWs)   bands (ev):

    -3.1318  -0.1861   2.0949   4.3339

          k = 0.2500-0.2500 0.7500 (   416 PWs)   bands (ev):

    -3.0802  -0.2643   2.5648   3.8601

          k =-0.2500 0.5833 0.2500 (   419 PWs)   bands (ev):

    -3.8747   0.4405   3.6374   4.2274

          k = 0.5833-0.2500 1.0833 (   415 PWs)   bands (ev):

    -2.8885  -0.2994   2.1934   3.4501

          k = 0.4167-0.0833 0.9167 (   414 PWs)   bands (ev):

    -2.0707  -1.0252   2.0332   2.7950

          k =-0.2500-1.0833 0.2500 (   420 PWs)   bands (ev):

    -2.2781  -0.9311   1.9088   3.6685

          k =-0.4167 0.4167 0.4167 (   416 PWs)   bands (ev):

    -3.7879  -0.3299   4.8900   4.8900

          k = 0.4167-0.4167 1.2500 (   414 PWs)   bands (ev):

    -3.1929  -0.6290   3.0910   4.4583

     highest occupied level (ev):     5.8774

!    total energy              =     -15.74125920 Ry
     estimated scf accuracy    <       0.00000022 Ry

     The total energy is the sum of the following terms:
     one-electron contribution =       4.61962729 Ry
     hartree contribution      =       1.11193132 Ry
     xc contribution           =      -4.79058250 Ry
     ewald contribution        =     -16.68223532 Ry

     convergence has been achieved in   5 iterations

     Forces acting on atoms (cartesian axes, Ry/au):

     atom    1 type  1   force =     0.00000000    0.00000000   -0.00000000
     atom    2 type  1   force =    -0.00000000   -0.00000000    0.00000000

     Total force =     0.000000     Total SCF correction =     0.000000


     Computing stress (Cartesian axis) and pressure

          total   stress  (Ry/bohr**3)                   (kbar)     P=        2.06
   0.00001401   0.00000000   0.00000000            2.06        0.00        0.00
   0.00000000   0.00001401   0.00000000            0.00        2.06        0.00
   0.00000000  -0.00000000   0.00001401            0.00       -0.00        2.06


     Writing all to output data dir ./Si2.save/
 
     init_run     :      0.33s CPU      0.38s WALL (       1 calls)
     electrons    :      2.20s CPU      2.56s WALL (       1 calls)
     forces       :      0.02s CPU      0.02s WALL (       1 calls)
     stress       :      0.13s CPU      0.13s WALL (       1 calls)

     Called by init_run:
     wfcinit      :      0.19s CPU      0.20s WALL (       1 calls)
     potinit      :      0.02s CPU      0.03s WALL (       1 calls)
     hinit0       :      0.11s CPU      0.14s WALL (       1 calls)

     Called by electrons:
     c_bands      :      1.82s CPU      2.15s WALL (       6 calls)
     sum_band     :      0.27s CPU      0.28s WALL (       6 calls)
     v_of_rho     :      0.12s CPU      0.12s WALL (       6 calls)
     mix_rho      :      0.00s CPU      0.01s WALL (       6 calls)

     Called by c_bands:
     init_us_2    :      0.09s CPU      0.11s WALL (     420 calls)
     init_us_2:cp :      0.09s CPU      0.11s WALL (     420 calls)
     cegterg      :      1.72s CPU      1.81s WALL (     168 calls)

     Called by *egterg:
     cdiaghg      :      0.17s CPU      0.18s WALL (     590 calls)
     h_psi        :      1.51s CPU      1.58s WALL (     646 calls)
     g_psi        :      0.01s CPU      0.01s WALL (     450 calls)

     Called by h_psi:
     h_psi:calbec :      0.06s CPU      0.07s WALL (     646 calls)
     vloc_psi     :      1.39s CPU      1.45s WALL (     646 calls)
     add_vuspsi   :      0.03s CPU      0.03s WALL (     646 calls)

     General routines
     calbec       :      0.06s CPU      0.06s WALL (     786 calls)
     fft          :      0.02s CPU      0.05s WALL (      68 calls)
     ffts         :      0.00s CPU      0.00s WALL (       6 calls)
     fftw         :      1.37s CPU      1.44s WALL (    5176 calls)
 
     Parallel routines
 
     PWSCF        :      2.89s CPU      3.70s WALL

 
   This run was terminated on:  18:37:31  18Feb2022            

=------------------------------------------------------------------------------=
   JOB DONE.
=------------------------------------------------------------------------------=
