
     Program PWSCF v.7.0 starts on 20Feb2022 at 21:35:37 

     This program is part of the open-source Quantum ESPRESSO suite
     for quantum simulation of materials; please cite
         "P. Giannozzi et al., J. Phys.:Condens. Matter 21 395502 (2009);
         "P. Giannozzi et al., J. Phys.:Condens. Matter 29 465901 (2017);
         "P. Giannozzi et al., J. Chem. Phys. 152 154105 (2020);
          URL http://www.quantum-espresso.org", 
     in publications or presentations arising from this work. More details at
     http://www.quantum-espresso.org/quote

     Parallel version (MPI), running on     1 processors

     MPI processes distributed on     1 nodes
     89101 MiB available memory on the printing compute node when the environment starts
 
     Reading input from Si64.scf.50.in
Warning: card  SI   0.3669964855000001  0.8669964855000001  0.0000000000000000 ignored
Warning: card  SI   0.8669964855000001  0.8669964855000001  0.0000000000000000 ignored
Warning: card  SI   0.3669964855000001  0.3669964855000001  0.5000000000000000 ignored
Warning: card  SI   0.8669964855000001  0.3669964855000001  0.5000000000000000 ignored
Warning: card  SI   0.3669964855000001  0.8669964855000001  0.5000000000000000 ignored
Warning: card  SI   0.8669964855000001  0.8669964855000001  0.5000000000000000 ignored
Warning: card  SI   0.0000000000000000  0.0000000000000000  0.0000000000000000 ignored
Warning: card  SI   0.5000000000000000  0.0000000000000000  0.0000000000000000 ignored
Warning: card  SI   0.0000000000000000  0.5000000000000000  0.0000000000000000 ignored
Warning: card  SI   0.5000000000000000  0.5000000000000000  0.0000000000000000 ignored
Warning: card  SI   0.0000000000000000  0.0000000000000000  0.5000000000000000 ignored
Warning: card  SI   0.5000000000000000  0.0000000000000000  0.5000000000000000 ignored
Warning: card  SI   0.0000000000000000  0.5000000000000000  0.5000000000000000 ignored
Warning: card  SI   0.5000000000000000  0.5000000000000000  0.5000000000000000 ignored
Warning: card  SI   0.3669964855000001  0.0000000000000000  0.3669964855000001 ignored
Warning: card  SI   0.8669964855000001  0.0000000000000000  0.3669964855000001 ignored
Warning: card  SI   0.3669964855000001  0.5000000000000000  0.3669964855000001 ignored
Warning: card  SI   0.8669964855000001  0.5000000000000000  0.3669964855000001 ignored
Warning: card  SI   0.3669964855000001  0.0000000000000000  0.8669964855000001 ignored
Warning: card  SI   0.8669964855000001  0.0000000000000000  0.8669964855000001 ignored
Warning: card  SI   0.3669964855000001  0.5000000000000000  0.8669964855000001 ignored
Warning: card  SI   0.8669964855000001  0.5000000000000000  0.8669964855000001 ignored
Warning: card  SI   0.0000000000000000  0.3669964855000001  0.3669964855000001 ignored
Warning: card  SI   0.5000000000000000  0.3669964855000001  0.3669964855000001 ignored
Warning: card  SI   0.0000000000000000  0.8669964855000001  0.3669964855000001 ignored
Warning: card  SI   0.5000000000000000  0.8669964855000001  0.3669964855000001 ignored
Warning: card  SI   0.0000000000000000  0.3669964855000001  0.8669964855000001 ignored
Warning: card  SI   0.5000000000000000  0.3669964855000001  0.8669964855000001 ignored
Warning: card  SI   0.0000000000000000  0.8669964855000001  0.8669964855000001 ignored
Warning: card  SI   0.5000000000000000  0.8669964855000001  0.8669964855000001 ignored
Warning: card  SI   0.0504947279999999  0.0504947279999999  0.6834982425000000 ignored
Warning: card  SI   0.5504947279999999  0.0504947279999999  0.6834982425000000 ignored
Warning: card  SI   0.0504947279999999  0.5504947279999999  0.6834982425000000 ignored
Warning: card  SI   0.5504947279999999  0.5504947279999999  0.6834982425000000 ignored
Warning: card  SI   0.0504947279999999  0.0504947279999999  0.1834982425000000 ignored
Warning: card  SI   0.5504947279999999  0.0504947279999999  0.1834982425000000 ignored
Warning: card  SI   0.0504947279999999  0.5504947279999999  0.1834982425000000 ignored
Warning: card  SI   0.5504947279999999  0.5504947279999999  0.1834982425000000 ignored
Warning: card  SI   0.6834982425000000  0.6834982425000000  0.6834982425000000 ignored
Warning: card  SI   0.1834982425000000  0.6834982425000000  0.6834982425000000 ignored
Warning: card  SI   0.6834982425000000  0.1834982425000000  0.6834982425000000 ignored
Warning: card  SI   0.1834982425000000  0.1834982425000000  0.6834982425000000 ignored
Warning: card  SI   0.6834982425000000  0.6834982425000000  0.1834982425000000 ignored
Warning: card  SI   0.1834982425000000  0.6834982425000000  0.1834982425000000 ignored
Warning: card  SI   0.6834982425000000  0.1834982425000000  0.1834982425000000 ignored
Warning: card  SI   0.1834982425000000  0.1834982425000000  0.1834982425000000 ignored
Warning: card  SI   0.0504947279999999  0.6834982425000000  0.0504947279999999 ignored
Warning: card  SI   0.5504947279999999  0.6834982425000000  0.0504947279999999 ignored
Warning: card  SI   0.0504947279999999  0.1834982425000000  0.0504947279999999 ignored
Warning: card  SI   0.5504947279999999  0.1834982425000000  0.0504947279999999 ignored
Warning: card  SI   0.0504947279999999  0.6834982425000000  0.5504947279999999 ignored
Warning: card  SI   0.5504947279999999  0.6834982425000000  0.5504947279999999 ignored
Warning: card  SI   0.0504947279999999  0.1834982425000000  0.5504947279999999 ignored
Warning: card  SI   0.5504947279999999  0.1834982425000000  0.5504947279999999 ignored
Warning: card  SI   0.6834982425000000  0.0504947279999999  0.0504947279999999 ignored
Warning: card  SI   0.1834982425000000  0.0504947279999999  0.0504947279999999 ignored
Warning: card  SI   0.6834982425000000  0.5504947279999999  0.0504947279999999 ignored
Warning: card  SI   0.1834982425000000  0.5504947279999999  0.0504947279999999 ignored
Warning: card  SI   0.6834982425000000  0.0504947279999999  0.5504947279999999 ignored
Warning: card  SI   0.1834982425000000  0.0504947279999999  0.5504947279999999 ignored
Warning: card  SI   0.6834982425000000  0.5504947279999999  0.5504947279999999 ignored
Warning: card  SI   0.1834982425000000  0.5504947279999999  0.5504947279999999 ignored

     Current dimensions of program PWSCF are:
     Max number of different atomic species (ntypx) = 10
     Max number of k-points (npk) =  40000
     Max angular momentum in pseudopotentials (lmaxx) =  4
     Found identity + ( -0.5000  0.0000  0.0000) symmetry
     This is a supercell, fractional translations are disabled

     Subspace diagonalization in iterative solution of the eigenvalue problem:
     a serial algorithm will be used

 
     G-vector sticks info
     --------------------
     sticks:   dense  smooth     PW     G-vecs:    dense   smooth      PW
     Sum         745     745    235                13323    13323    2277
 
     Using Slab Decomposition
 


     bravais-lattice index     =            2
     lattice parameter (alat)  =      10.3330  a.u.
     unit-cell volume          =     275.8159 (a.u.)^3
     number of atoms/cell      =            2
     number of atomic types    =            1
     number of electrons       =         8.00
     number of Kohn-Sham states=            4
     kinetic-energy cutoff     =      50.0000  Ry
     charge density cutoff     =     200.0000  Ry
     scf convergence threshold =      1.0E-06
     mixing beta               =       0.7000
     number of iterations used =            8  plain     mixing
     Exchange-correlation=  SLA  PW   PBE  PBE
                           (   1   4   3   4   0   0   0)

     celldm(1)=  10.333000  celldm(2)=   0.000000  celldm(3)=   0.000000
     celldm(4)=   0.000000  celldm(5)=   0.000000  celldm(6)=   0.000000

     crystal axes: (cart. coord. in units of alat)
               a(1) = (  -0.500000   0.000000   0.500000 )  
               a(2) = (   0.000000   0.500000   0.500000 )  
               a(3) = (  -0.500000   0.500000   0.000000 )  

     reciprocal axes: (cart. coord. in units 2 pi/alat)
               b(1) = ( -1.000000 -1.000000  1.000000 )  
               b(2) = (  1.000000  1.000000  1.000000 )  
               b(3) = ( -1.000000  1.000000 -1.000000 )  


     PseudoPot. # 1 for Si read from file:
     ../Si.pbe-rrkj.UPF
     MD5 check sum: cf7ab5690cd9a85b22c4813f7e365554
     Pseudo is Norm-conserving, Zval =  4.0
     Generated by new atomic code, or converted to UPF format
     Using radial grid of  883 points,  3 beta functions with: 
                l(1) =   0
                l(2) =   0
                l(3) =   1

     atomic species   valence    mass     pseudopotential
        Si             4.00    28.08600     Si( 1.00)

     No symmetry found



   Cartesian axes

     site n.     atom                  positions (alat units)
         1           Si  tau(   1) = (  -0.1834982   0.1834982   0.3669965  )
         2           Si  tau(   2) = (  -0.4334982   0.1834982   0.6169965  )

     number of k points=   432

     Number of k-points >= 100: set verbosity='high' to print them.

     Dense  grid:    13323 G-vectors     FFT dimensions: (  36,  36,  36)

     Estimated max dynamical RAM per process >      53.12 MB

     Initial potential from superposition of free atoms

     starting charge       7.9989, renormalised to       8.0000
     Starting wfcs are    8 randomized atomic wfcs

     total cpu time spent up to now is       10.7 secs

     Self-consistent Calculation

     iteration #  1     ecut=    50.00 Ry     beta= 0.70
     Davidson diagonalization with overlap
     ethr =  1.00E-02,  avg # of iterations =  2.0

     Threshold (ethr) on eigenvalues was too large:
     Diagonalizing with lowered threshold

     Davidson diagonalization with overlap
     ethr =  8.07E-04,  avg # of iterations =  2.9

     total cpu time spent up to now is       43.6 secs

     total energy              =     -15.37991648 Ry
     estimated scf accuracy    <       0.10031688 Ry

     iteration #  2     ecut=    50.00 Ry     beta= 0.70
     Davidson diagonalization with overlap
     ethr =  1.25E-03,  avg # of iterations =  1.9

     total cpu time spent up to now is       57.7 secs

     total energy              =     -15.38908985 Ry
     estimated scf accuracy    <       0.00230214 Ry

     iteration #  3     ecut=    50.00 Ry     beta= 0.70
     Davidson diagonalization with overlap
     c_bands:  1 eigenvalues not converged
     c_bands:  1 eigenvalues not converged
     ethr =  2.88E-05,  avg # of iterations =  3.9

     total cpu time spent up to now is       77.0 secs

     total energy              =     -15.39022646 Ry
     estimated scf accuracy    <       0.00018610 Ry

     iteration #  4     ecut=    50.00 Ry     beta= 0.70
     Davidson diagonalization with overlap
     c_bands:  1 eigenvalues not converged
     c_bands:  1 eigenvalues not converged
     c_bands:  1 eigenvalues not converged
     c_bands:  1 eigenvalues not converged
     c_bands:  1 eigenvalues not converged
     c_bands:  1 eigenvalues not converged
     c_bands:  1 eigenvalues not converged
     ethr =  2.33E-06,  avg # of iterations =  3.3

     total cpu time spent up to now is       95.9 secs

     total energy              =     -15.39287779 Ry
     estimated scf accuracy    <       0.00002711 Ry

     iteration #  5     ecut=    50.00 Ry     beta= 0.70
     Davidson diagonalization with overlap
     c_bands:  1 eigenvalues not converged
     c_bands:  1 eigenvalues not converged
     c_bands:  1 eigenvalues not converged
     c_bands:  1 eigenvalues not converged
     c_bands:  1 eigenvalues not converged
     c_bands:  1 eigenvalues not converged
     c_bands:  1 eigenvalues not converged
     ethr =  3.39E-07,  avg # of iterations =  3.4

     total cpu time spent up to now is      113.4 secs

     total energy              =     -15.39329890 Ry
     estimated scf accuracy    <       0.00000852 Ry

     iteration #  6     ecut=    50.00 Ry     beta= 0.70
     Davidson diagonalization with overlap
     c_bands:  1 eigenvalues not converged
     c_bands:  1 eigenvalues not converged
     c_bands:  1 eigenvalues not converged
     c_bands:  1 eigenvalues not converged
     c_bands:  1 eigenvalues not converged
     c_bands:  1 eigenvalues not converged
     c_bands:  1 eigenvalues not converged
     c_bands:  1 eigenvalues not converged
     ethr =  1.06E-07,  avg # of iterations =  2.6

     total cpu time spent up to now is      128.3 secs

     total energy              =     -15.39348027 Ry
     estimated scf accuracy    <       0.00000736 Ry

     iteration #  7     ecut=    50.00 Ry     beta= 0.70
     Davidson diagonalization with overlap
     c_bands:  1 eigenvalues not converged
     c_bands:  1 eigenvalues not converged
     c_bands:  1 eigenvalues not converged
     c_bands:  1 eigenvalues not converged
     ethr =  9.20E-08,  avg # of iterations =  1.3

     total cpu time spent up to now is      140.9 secs

     total energy              =     -15.39349156 Ry
     estimated scf accuracy    <       0.00000340 Ry

     iteration #  8     ecut=    50.00 Ry     beta= 0.70
     Davidson diagonalization with overlap
     c_bands:  1 eigenvalues not converged
     c_bands:  1 eigenvalues not converged
     c_bands:  1 eigenvalues not converged
     c_bands:  1 eigenvalues not converged
     c_bands:  1 eigenvalues not converged
     ethr =  4.25E-08,  avg # of iterations =  2.2

     total cpu time spent up to now is      155.1 secs

     total energy              =     -15.39356614 Ry
     estimated scf accuracy    <       0.00000196 Ry

     iteration #  9     ecut=    50.00 Ry     beta= 0.70
     Davidson diagonalization with overlap
     c_bands:  1 eigenvalues not converged
     c_bands:  1 eigenvalues not converged
     c_bands:  1 eigenvalues not converged
     c_bands:  1 eigenvalues not converged
     c_bands:  1 eigenvalues not converged
     ethr =  2.44E-08,  avg # of iterations =  1.8

     total cpu time spent up to now is      168.6 secs

     total energy              =     -15.39358067 Ry
     estimated scf accuracy    <       0.00000111 Ry

     iteration # 10     ecut=    50.00 Ry     beta= 0.70
     Davidson diagonalization with overlap
     c_bands:  1 eigenvalues not converged
     c_bands:  1 eigenvalues not converged
     c_bands:  1 eigenvalues not converged
     c_bands:  1 eigenvalues not converged
     ethr =  1.39E-08,  avg # of iterations =  1.4

     total cpu time spent up to now is      181.5 secs

     total energy              =     -15.39359761 Ry
     estimated scf accuracy    <       0.00000184 Ry

     iteration # 11     ecut=    50.00 Ry     beta= 0.70
     Davidson diagonalization with overlap
     c_bands:  1 eigenvalues not converged
     c_bands:  1 eigenvalues not converged
     c_bands:  1 eigenvalues not converged
     ethr =  1.39E-08,  avg # of iterations =  1.3

     total cpu time spent up to now is      194.1 secs

     total energy              =     -15.39362095 Ry
     estimated scf accuracy    <       0.00000234 Ry

     iteration # 12     ecut=    50.00 Ry     beta= 0.70
     Davidson diagonalization with overlap
     c_bands:  1 eigenvalues not converged
     c_bands:  1 eigenvalues not converged
     ethr =  1.39E-08,  avg # of iterations =  1.1

     total cpu time spent up to now is      206.6 secs

     total energy              =     -15.39362506 Ry
     estimated scf accuracy    <       0.00000208 Ry

     iteration # 13     ecut=    50.00 Ry     beta= 0.70
     Davidson diagonalization with overlap
     c_bands:  1 eigenvalues not converged
     ethr =  1.39E-08,  avg # of iterations =  1.5

     total cpu time spent up to now is      219.6 secs

     total energy              =     -15.39362629 Ry
     estimated scf accuracy    <       0.00000202 Ry

     iteration # 14     ecut=    50.00 Ry     beta= 0.70
     Davidson diagonalization with overlap
     c_bands:  1 eigenvalues not converged
     ethr =  1.39E-08,  avg # of iterations =  1.1

     total cpu time spent up to now is      231.9 secs

     total energy              =     -15.39362615 Ry
     estimated scf accuracy    <       0.00000246 Ry

     iteration # 15     ecut=    50.00 Ry     beta= 0.70
     Davidson diagonalization with overlap
     ethr =  1.39E-08,  avg # of iterations =  3.6

     total cpu time spent up to now is      251.3 secs

     total energy              =     -15.39362620 Ry
     estimated scf accuracy    <       0.00000539 Ry

     iteration # 16     ecut=    50.00 Ry     beta= 0.70
     Davidson diagonalization with overlap
     ethr =  1.39E-08,  avg # of iterations =  1.2

     total cpu time spent up to now is      263.9 secs

     total energy              =     -15.39362650 Ry
     estimated scf accuracy    <       0.00000311 Ry

     iteration # 17     ecut=    50.00 Ry     beta= 0.70
     Davidson diagonalization with overlap
     c_bands:  1 eigenvalues not converged
     c_bands:  1 eigenvalues not converged
     c_bands:  1 eigenvalues not converged
     c_bands:  1 eigenvalues not converged
     c_bands:  1 eigenvalues not converged
     c_bands:  1 eigenvalues not converged
     c_bands:  1 eigenvalues not converged
     c_bands:  1 eigenvalues not converged
     c_bands:  1 eigenvalues not converged
     c_bands:  1 eigenvalues not converged
     c_bands:  1 eigenvalues not converged
     c_bands:  1 eigenvalues not converged
     c_bands:  1 eigenvalues not converged
     c_bands:  1 eigenvalues not converged
     ethr =  1.39E-08,  avg # of iterations =  6.3

     total cpu time spent up to now is      288.0 secs

     total energy              =     -15.39362551 Ry
     estimated scf accuracy    <       0.00000907 Ry

     iteration # 18     ecut=    50.00 Ry     beta= 0.70
     Davidson diagonalization with overlap
     ethr =  1.39E-08,  avg # of iterations =  4.4

     total cpu time spent up to now is      308.6 secs

     total energy              =     -15.39362700 Ry
     estimated scf accuracy    <       0.00000358 Ry

     iteration # 19     ecut=    50.00 Ry     beta= 0.70
     Davidson diagonalization with overlap
     c_bands:  1 eigenvalues not converged
     c_bands:  1 eigenvalues not converged
     c_bands:  1 eigenvalues not converged
     c_bands:  1 eigenvalues not converged
     c_bands:  1 eigenvalues not converged
     c_bands:  1 eigenvalues not converged
     c_bands:  1 eigenvalues not converged
     c_bands:  1 eigenvalues not converged
     c_bands:  1 eigenvalues not converged
     c_bands:  1 eigenvalues not converged
     c_bands:  1 eigenvalues not converged
     c_bands:  1 eigenvalues not converged
     c_bands:  1 eigenvalues not converged
     c_bands:  1 eigenvalues not converged
     c_bands:  1 eigenvalues not converged
     c_bands:  1 eigenvalues not converged
     c_bands:  1 eigenvalues not converged
     c_bands:  1 eigenvalues not converged
     c_bands:  1 eigenvalues not converged
     c_bands:  1 eigenvalues not converged
     c_bands:  1 eigenvalues not converged
     ethr =  1.39E-08,  avg # of iterations =  8.2

     total cpu time spent up to now is      339.1 secs

     total energy              =     -15.39361931 Ry
     estimated scf accuracy    <       0.00003438 Ry

     iteration # 20     ecut=    50.00 Ry     beta= 0.70
     Davidson diagonalization with overlap
     c_bands:  1 eigenvalues not converged
     c_bands:  1 eigenvalues not converged
     c_bands:  1 eigenvalues not converged
     c_bands:  1 eigenvalues not converged
     c_bands:  1 eigenvalues not converged
     c_bands:  1 eigenvalues not converged
     c_bands:  1 eigenvalues not converged
     c_bands:  1 eigenvalues not converged
     c_bands:  1 eigenvalues not converged
     c_bands:  1 eigenvalues not converged
     c_bands:  1 eigenvalues not converged
     c_bands:  1 eigenvalues not converged
     c_bands:  1 eigenvalues not converged
     c_bands:  1 eigenvalues not converged
     c_bands:  1 eigenvalues not converged
     c_bands:  1 eigenvalues not converged
     c_bands:  1 eigenvalues not converged
     c_bands:  1 eigenvalues not converged
     c_bands:  1 eigenvalues not converged
     c_bands:  1 eigenvalues not converged
     c_bands:  1 eigenvalues not converged
     c_bands:  1 eigenvalues not converged
     c_bands:  1 eigenvalues not converged
     c_bands:  1 eigenvalues not converged
     ethr =  1.39E-08,  avg # of iterations =  8.6

     total cpu time spent up to now is      370.8 secs

     total energy              =     -15.39362618 Ry
     estimated scf accuracy    <       0.00000193 Ry

     iteration # 21     ecut=    50.00 Ry     beta= 0.70
     Davidson diagonalization with overlap
     ethr =  1.39E-08,  avg # of iterations =  1.2

     total cpu time spent up to now is      383.4 secs

     total energy              =     -15.39362563 Ry
     estimated scf accuracy    <       0.00000127 Ry

     iteration # 22     ecut=    50.00 Ry     beta= 0.70
     Davidson diagonalization with overlap
     c_bands:  1 eigenvalues not converged
     ethr =  1.39E-08,  avg # of iterations =  3.0

     total cpu time spent up to now is      401.1 secs

     End of self-consistent calculation

     Number of k-points >= 100: set verbosity='high' to print the bands.

     highest occupied level (ev):     6.8714

!    total energy              =     -15.39362593 Ry
     estimated scf accuracy    <       0.00000002 Ry

     The total energy is the sum of the following terms:
     one-electron contribution =       4.16396734 Ry
     hartree contribution      =       1.27028600 Ry
     xc contribution           =      -4.82514282 Ry
     ewald contribution        =     -16.00273644 Ry

     convergence has been achieved in  22 iterations

     Forces acting on atoms (cartesian axes, Ry/au):

     atom    1 type  1   force =    -0.00013578   -0.00000011    0.00013151
     atom    2 type  1   force =     0.00013578    0.00000011   -0.00013151

     Total force =     0.000267     Total SCF correction =     0.000069
     SCF correction compared to forces is large: reduce conv_thr to get better values


     Computing stress (Cartesian axis) and pressure

          total   stress  (Ry/bohr**3)                   (kbar)     P=      250.65
   0.00252807  -0.00000003  -0.00225144          371.89       -0.01     -331.20
  -0.00000003   0.00005549  -0.00000004           -0.01        8.16       -0.01
  -0.00225144  -0.00000004   0.00252807         -331.20       -0.01      371.89


     Writing all to output data dir ./Si2.save/
 
     init_run     :     10.15s CPU     10.47s WALL (       1 calls)
     electrons    :    376.16s CPU    390.44s WALL (       1 calls)
     forces       :      0.68s CPU      0.71s WALL (       1 calls)
     stress       :      5.96s CPU      5.99s WALL (       1 calls)

     Called by init_run:
     wfcinit      :      9.72s CPU     10.00s WALL (       1 calls)
     potinit      :      0.07s CPU      0.08s WALL (       1 calls)
     hinit0       :      0.16s CPU      0.18s WALL (       1 calls)

     Called by electrons:
     c_bands      :    318.37s CPU    330.91s WALL (      23 calls)
     sum_band     :     56.21s CPU     57.89s WALL (      23 calls)
     v_of_rho     :      1.51s CPU      1.53s WALL (      23 calls)
     mix_rho      :      0.12s CPU      0.13s WALL (      23 calls)

     Called by c_bands:
     init_us_2    :     18.73s CPU     20.44s WALL (   21168 calls)
     init_us_2:cp :     18.26s CPU     20.08s WALL (   21168 calls)
     cegterg      :    303.63s CPU    313.98s WALL (    9936 calls)

     Called by *egterg:
     cdiaghg      :     11.09s CPU     12.17s WALL (   39072 calls)
     h_psi        :    280.90s CPU    288.93s WALL (   39936 calls)
     g_psi        :      1.13s CPU      1.24s WALL (   29568 calls)

     Called by h_psi:
     h_psi:calbec :      6.68s CPU      6.98s WALL (   39936 calls)
     vloc_psi     :    268.06s CPU    275.41s WALL (   39936 calls)
     add_vuspsi   :      3.61s CPU      3.91s WALL (   39936 calls)

     General routines
     calbec       :      6.05s CPU      6.56s WALL (   42096 calls)
     fft          :      0.24s CPU      0.26s WALL (     238 calls)
     ffts         :      0.02s CPU      0.02s WALL (      23 calls)
     fftw         :    266.26s CPU    274.13s WALL (  279816 calls)
 
     Parallel routines
 
     PWSCF        :   6m33.64s CPU   6m50.83s WALL

 
   This run was terminated on:  21:42:28  20Feb2022            

=------------------------------------------------------------------------------=
   JOB DONE.
=------------------------------------------------------------------------------=
