
     Program PWSCF v.7.0 starts on 21Feb2022 at 14:17:22 

     This program is part of the open-source Quantum ESPRESSO suite
     for quantum simulation of materials; please cite
         "P. Giannozzi et al., J. Phys.:Condens. Matter 21 395502 (2009);
         "P. Giannozzi et al., J. Phys.:Condens. Matter 29 465901 (2017);
         "P. Giannozzi et al., J. Chem. Phys. 152 154105 (2020);
          URL http://www.quantum-espresso.org", 
     in publications or presentations arising from this work. More details at
     http://www.quantum-espresso.org/quote

     Parallel version (MPI), running on     1 processors

     MPI processes distributed on     1 nodes
     86067 MiB available memory on the printing compute node when the environment starts
 
     Reading input from Si64.scf.kpoint.4.in

     Current dimensions of program PWSCF are:
     Max number of different atomic species (ntypx) = 10
     Max number of k-points (npk) =  40000
     Max angular momentum in pseudopotentials (lmaxx) =  4
     Found identity + ( -0.5000  0.0000  0.0000) symmetry
     This is a supercell, fractional translations are disabled
     Message from routine setup:
     using ibrav=0 with symmetry is DISCOURAGED, use correct ibrav instead

     Subspace diagonalization in iterative solution of the eigenvalue problem:
     a serial algorithm will be used

 
     G-vector sticks info
     --------------------
     sticks:   dense  smooth     PW     G-vecs:    dense   smooth      PW
     Sum        4061    4061   1093               195797   195797   27201
 
     Using Slab Decomposition
 


     bravais-lattice index     =            0
     lattice parameter (alat)  =      20.6660  a.u.
     unit-cell volume          =    8826.0984 (a.u.)^3
     number of atoms/cell      =           64
     number of atomic types    =            1
     number of electrons       =       256.00
     number of Kohn-Sham states=          128
     kinetic-energy cutoff     =      30.0000  Ry
     charge density cutoff     =     120.0000  Ry
     scf convergence threshold =      1.0E-06
     mixing beta               =       0.7000
     number of iterations used =            8  plain     mixing
     Exchange-correlation=  SLA  PW   PBE  PBE
                           (   1   4   3   4   0   0   0)

     celldm(1)=  20.665992  celldm(2)=   0.000000  celldm(3)=   0.000000
     celldm(4)=   0.000000  celldm(5)=   0.000000  celldm(6)=   0.000000

     crystal axes: (cart. coord. in units of alat)
               a(1) = (   1.000000   0.000000   0.000000 )  
               a(2) = (   0.000000   1.000000   0.000000 )  
               a(3) = (   0.000000   0.000000   1.000000 )  

     reciprocal axes: (cart. coord. in units 2 pi/alat)
               b(1) = (  1.000000  0.000000  0.000000 )  
               b(2) = (  0.000000  1.000000  0.000000 )  
               b(3) = (  0.000000  0.000000  1.000000 )  


     PseudoPot. # 1 for Si read from file:
     ../Si.pbe-rrkj.UPF
     MD5 check sum: cf7ab5690cd9a85b22c4813f7e365554
     Pseudo is Norm-conserving, Zval =  4.0
     Generated by new atomic code, or converted to UPF format
     Using radial grid of  883 points,  3 beta functions with: 
                l(1) =   0
                l(2) =   0
                l(3) =   1

     atomic species   valence    mass     pseudopotential
        Si             4.00    28.08600     Si( 1.00)

      6 Sym. Ops. (no inversion) found



   Cartesian axes

     site n.     atom                  positions (alat units)
         1           Si  tau(   1) = (   0.3669965   0.3669965   0.0000000  )
         2           Si  tau(   2) = (   0.8669965   0.3669965   0.0000000  )
         3           Si  tau(   3) = (   0.3669965   0.8669965   0.0000000  )
         4           Si  tau(   4) = (   0.8669965   0.8669965   0.0000000  )
         5           Si  tau(   5) = (   0.3669965   0.3669965   0.5000000  )
         6           Si  tau(   6) = (   0.8669965   0.3669965   0.5000000  )
         7           Si  tau(   7) = (   0.3669965   0.8669965   0.5000000  )
         8           Si  tau(   8) = (   0.8669965   0.8669965   0.5000000  )
         9           Si  tau(   9) = (   0.0000000   0.0000000   0.0000000  )
        10           Si  tau(  10) = (   0.5000000   0.0000000   0.0000000  )
        11           Si  tau(  11) = (   0.0000000   0.5000000   0.0000000  )
        12           Si  tau(  12) = (   0.5000000   0.5000000   0.0000000  )
        13           Si  tau(  13) = (   0.0000000   0.0000000   0.5000000  )
        14           Si  tau(  14) = (   0.5000000   0.0000000   0.5000000  )
        15           Si  tau(  15) = (   0.0000000   0.5000000   0.5000000  )
        16           Si  tau(  16) = (   0.5000000   0.5000000   0.5000000  )
        17           Si  tau(  17) = (   0.3669965   0.0000000   0.3669965  )
        18           Si  tau(  18) = (   0.8669965   0.0000000   0.3669965  )
        19           Si  tau(  19) = (   0.3669965   0.5000000   0.3669965  )
        20           Si  tau(  20) = (   0.8669965   0.5000000   0.3669965  )
        21           Si  tau(  21) = (   0.3669965   0.0000000   0.8669965  )
        22           Si  tau(  22) = (   0.8669965   0.0000000   0.8669965  )
        23           Si  tau(  23) = (   0.3669965   0.5000000   0.8669965  )
        24           Si  tau(  24) = (   0.8669965   0.5000000   0.8669965  )
        25           Si  tau(  25) = (   0.0000000   0.3669965   0.3669965  )
        26           Si  tau(  26) = (   0.5000000   0.3669965   0.3669965  )
        27           Si  tau(  27) = (   0.0000000   0.8669965   0.3669965  )
        28           Si  tau(  28) = (   0.5000000   0.8669965   0.3669965  )
        29           Si  tau(  29) = (   0.0000000   0.3669965   0.8669965  )
        30           Si  tau(  30) = (   0.5000000   0.3669965   0.8669965  )
        31           Si  tau(  31) = (   0.0000000   0.8669965   0.8669965  )
        32           Si  tau(  32) = (   0.5000000   0.8669965   0.8669965  )
        33           Si  tau(  33) = (   0.0504947   0.0504947   0.6834982  )
        34           Si  tau(  34) = (   0.5504947   0.0504947   0.6834982  )
        35           Si  tau(  35) = (   0.0504947   0.5504947   0.6834982  )
        36           Si  tau(  36) = (   0.5504947   0.5504947   0.6834982  )
        37           Si  tau(  37) = (   0.0504947   0.0504947   0.1834982  )
        38           Si  tau(  38) = (   0.5504947   0.0504947   0.1834982  )
        39           Si  tau(  39) = (   0.0504947   0.5504947   0.1834982  )
        40           Si  tau(  40) = (   0.5504947   0.5504947   0.1834982  )
        41           Si  tau(  41) = (   0.6834982   0.6834982   0.6834982  )
        42           Si  tau(  42) = (   0.1834982   0.6834982   0.6834982  )
        43           Si  tau(  43) = (   0.6834982   0.1834982   0.6834982  )
        44           Si  tau(  44) = (   0.1834982   0.1834982   0.6834982  )
        45           Si  tau(  45) = (   0.6834982   0.6834982   0.1834982  )
        46           Si  tau(  46) = (   0.1834982   0.6834982   0.1834982  )
        47           Si  tau(  47) = (   0.6834982   0.1834982   0.1834982  )
        48           Si  tau(  48) = (   0.1834982   0.1834982   0.1834982  )
        49           Si  tau(  49) = (   0.0504947   0.6834982   0.0504947  )
        50           Si  tau(  50) = (   0.5504947   0.6834982   0.0504947  )
        51           Si  tau(  51) = (   0.0504947   0.1834982   0.0504947  )
        52           Si  tau(  52) = (   0.5504947   0.1834982   0.0504947  )
        53           Si  tau(  53) = (   0.0504947   0.6834982   0.5504947  )
        54           Si  tau(  54) = (   0.5504947   0.6834982   0.5504947  )
        55           Si  tau(  55) = (   0.0504947   0.1834982   0.5504947  )
        56           Si  tau(  56) = (   0.5504947   0.1834982   0.5504947  )
        57           Si  tau(  57) = (   0.6834982   0.0504947   0.0504947  )
        58           Si  tau(  58) = (   0.1834982   0.0504947   0.0504947  )
        59           Si  tau(  59) = (   0.6834982   0.5504947   0.0504947  )
        60           Si  tau(  60) = (   0.1834982   0.5504947   0.0504947  )
        61           Si  tau(  61) = (   0.6834982   0.0504947   0.5504947  )
        62           Si  tau(  62) = (   0.1834982   0.0504947   0.5504947  )
        63           Si  tau(  63) = (   0.6834982   0.5504947   0.5504947  )
        64           Si  tau(  64) = (   0.1834982   0.5504947   0.5504947  )

     number of k points=    10
                       cart. coord. in units 2pi/alat
        k(    1) = (   0.1250000   0.1250000   0.1250000), wk =   0.0625000
        k(    2) = (   0.1250000   0.1250000   0.3750000), wk =   0.1875000
        k(    3) = (   0.1250000   0.3750000   0.3750000), wk =   0.1875000
        k(    4) = (   0.3750000   0.3750000   0.3750000), wk =   0.0625000
        k(    5) = (   0.1250000  -0.1250000   0.1250000), wk =   0.1875000
        k(    6) = (   0.1250000  -0.1250000   0.3750000), wk =   0.3750000
        k(    7) = (  -0.3750000   0.1250000   0.1250000), wk =   0.1875000
        k(    8) = (   0.3750000  -0.1250000   0.3750000), wk =   0.1875000
        k(    9) = (  -0.3750000   0.1250000   0.3750000), wk =   0.3750000
        k(   10) = (   0.3750000  -0.3750000   0.3750000), wk =   0.1875000

     Dense  grid:   195797 G-vectors     FFT dimensions: (  75,  75,  75)

     Estimated max dynamical RAM per process >     951.25 MB

     Initial potential from superposition of free atoms

     starting charge     255.9646, renormalised to     256.0000
     Starting wfcs are  256 randomized atomic wfcs

     total cpu time spent up to now is       93.9 secs

     Self-consistent Calculation

     iteration #  1     ecut=    30.00 Ry     beta= 0.70
     Davidson diagonalization with overlap
     ethr =  1.00E-02,  avg # of iterations =  3.0

     total cpu time spent up to now is      267.4 secs

     total energy              =    -491.27865232 Ry
     estimated scf accuracy    <       6.73490431 Ry

     iteration #  2     ecut=    30.00 Ry     beta= 0.70
     Davidson diagonalization with overlap
     ethr =  2.63E-03,  avg # of iterations =  3.0

     total cpu time spent up to now is      435.0 secs

     total energy              =    -493.13084949 Ry
     estimated scf accuracy    <       2.20810214 Ry

     iteration #  3     ecut=    30.00 Ry     beta= 0.70
     Davidson diagonalization with overlap
     ethr =  8.63E-04,  avg # of iterations =  7.9

     total cpu time spent up to now is      602.2 secs

     total energy              =    -493.68074264 Ry
     estimated scf accuracy    <       0.07767182 Ry

     iteration #  4     ecut=    30.00 Ry     beta= 0.70
     Davidson diagonalization with overlap
     ethr =  3.03E-05,  avg # of iterations = 14.8

     total cpu time spent up to now is      867.3 secs

     total energy              =    -493.76784076 Ry
     estimated scf accuracy    <       0.04048123 Ry

     iteration #  5     ecut=    30.00 Ry     beta= 0.70
     Davidson diagonalization with overlap
     ethr =  1.58E-05,  avg # of iterations =  9.5

     total cpu time spent up to now is     1043.9 secs

     total energy              =    -493.76813390 Ry
     estimated scf accuracy    <       0.04829819 Ry

     iteration #  6     ecut=    30.00 Ry     beta= 0.70
     Davidson diagonalization with overlap
     ethr =  1.58E-05,  avg # of iterations = 12.0

     total cpu time spent up to now is     1228.8 secs

     total energy              =    -493.77169774 Ry
     estimated scf accuracy    <       0.07673593 Ry

     iteration #  7     ecut=    30.00 Ry     beta= 0.70
     Davidson diagonalization with overlap
     ethr =  1.58E-05,  avg # of iterations =  9.1

     total cpu time spent up to now is     1385.5 secs

     total energy              =    -493.77660454 Ry
     estimated scf accuracy    <       0.00672835 Ry

     iteration #  8     ecut=    30.00 Ry     beta= 0.70
     Davidson diagonalization with overlap
     ethr =  2.63E-06,  avg # of iterations =  8.9

     total cpu time spent up to now is     1563.8 secs

     total energy              =    -493.77796637 Ry
     estimated scf accuracy    <       0.00320563 Ry

     iteration #  9     ecut=    30.00 Ry     beta= 0.70
     Davidson diagonalization with overlap
     ethr =  1.25E-06,  avg # of iterations =  5.9

     total cpu time spent up to now is     1715.6 secs

     total energy              =    -493.77837746 Ry
     estimated scf accuracy    <       0.00117256 Ry

     iteration # 10     ecut=    30.00 Ry     beta= 0.70
     Davidson diagonalization with overlap
     ethr =  4.58E-07,  avg # of iterations =  7.2

     total cpu time spent up to now is     1863.4 secs

     total energy              =    -493.77841418 Ry
     estimated scf accuracy    <       0.00073397 Ry

     iteration # 11     ecut=    30.00 Ry     beta= 0.70
     Davidson diagonalization with overlap
     ethr =  2.87E-07,  avg # of iterations =  5.8

     total cpu time spent up to now is     1988.7 secs

     total energy              =    -493.77844899 Ry
     estimated scf accuracy    <       0.00022771 Ry

     iteration # 12     ecut=    30.00 Ry     beta= 0.70
     Davidson diagonalization with overlap
     ethr =  8.90E-08,  avg # of iterations =  8.5

     total cpu time spent up to now is     2153.4 secs

     total energy              =    -493.77848116 Ry
     estimated scf accuracy    <       0.00007506 Ry

     iteration # 13     ecut=    30.00 Ry     beta= 0.70
     Davidson diagonalization with overlap
     ethr =  2.93E-08,  avg # of iterations =  8.1

     total cpu time spent up to now is     2313.2 secs

     total energy              =    -493.77848907 Ry
     estimated scf accuracy    <       0.00005039 Ry

     iteration # 14     ecut=    30.00 Ry     beta= 0.70
     Davidson diagonalization with overlap
     ethr =  1.97E-08,  avg # of iterations =  4.8

     total cpu time spent up to now is     2435.2 secs

     total energy              =    -493.77848574 Ry
     estimated scf accuracy    <       0.00003504 Ry

     iteration # 15     ecut=    30.00 Ry     beta= 0.70
     Davidson diagonalization with overlap
     ethr =  1.37E-08,  avg # of iterations =  7.9

     total cpu time spent up to now is     2587.1 secs

     total energy              =    -493.77849025 Ry
     estimated scf accuracy    <       0.00000502 Ry

     iteration # 16     ecut=    30.00 Ry     beta= 0.70
     Davidson diagonalization with overlap
     ethr =  1.96E-09,  avg # of iterations =  7.8

     total cpu time spent up to now is     2746.9 secs

     End of self-consistent calculation

          k = 0.1250 0.1250 0.1250 ( 24483 PWs)   bands (ev):

    -9.5376  -9.3975  -9.3975  -9.3975  -9.2796  -9.2795  -9.2795  -9.1813
    -8.2700  -8.2403  -8.2403  -8.2401  -8.1691  -8.1691  -8.1690  -8.0238
    -3.7357  -3.5726  -3.5726  -3.5726  -3.4199  -3.4199  -3.4199  -3.3573
    -2.9982  -2.9981  -2.9981  -2.7381  -2.7381  -2.4627  -2.4627  -2.4627
    -1.8749  -1.8749  -1.7362  -1.7361  -1.7361  -1.6851  -1.6850  -1.6850
    -1.1743  -1.1743  -1.1743  -0.9888  -0.9888  -0.9887  -0.8177  -0.8177
    -0.8177  -0.8171  -0.8171  -0.5802  -0.5802  -0.0264   0.0479   0.0479
     0.0480   0.1263   0.1263   0.1264   0.1898   0.2478   0.2479   0.2479
     0.8579   1.7137   1.7137   1.7137   1.7910   2.0802   2.0802   2.0802
     2.2890   2.2890   2.2891   2.4359   2.4359   2.4360   2.5149   2.5149
     3.0113   3.0113   3.0113   3.0143   3.0143   3.0143   3.1016   3.1017
     3.1017   3.1197   3.1198   3.1198   3.2397   3.2889   3.2889   3.2889
     3.6637   3.6637   3.6891   3.8245   3.8246   3.8246   3.8270   3.8271
     3.8271   4.0120   4.0120   4.0120   4.1492   4.1492   4.5143   4.5143
     4.8302   4.8302   5.2514   5.2514   5.2514   5.3187   5.3187   5.3187
     5.3572   5.3572   5.4026   5.4026   5.4026   5.7060   5.7060   5.7060

          k = 0.1250 0.1250 0.3750 ( 24484 PWs)   bands (ev):

    -9.4994  -9.4429  -9.3656  -9.3656  -9.3165  -9.3164  -9.2529  -9.2112
    -8.2606  -8.2462  -8.2170  -8.2169  -8.1866  -8.1864  -8.1202  -8.0642
    -3.6836  -3.6233  -3.5161  -3.5161  -3.4933  -3.4933  -3.4422  -3.3449
    -2.9320  -2.8768  -2.8767  -2.8254  -2.5757  -2.5757  -2.5579  -2.2458
    -2.2019  -2.1812  -1.8240  -1.7946  -1.7946  -1.7483  -1.7356  -1.7356
    -1.2069  -1.2069  -1.1065  -1.1065  -1.0343  -0.8131  -0.8091  -0.7954
    -0.7259  -0.6273  -0.4160  -0.4160  -0.3516  -0.0168  -0.0159   0.0106
     0.0107   0.0735   0.1501   0.1501   0.1855   0.1972   0.1973   0.2363
     1.1657   1.7325   1.7435   1.8323   1.8323   1.8941   1.9888   1.9888
     2.1827   2.3158   2.3158   2.3682   2.3882   2.5106   2.5107   2.6728
     2.7249   2.7249   2.7509   2.8767   2.8820   2.8820   3.1419   3.1420
     3.1789   3.2154   3.2155   3.3336   3.3580   3.3594   3.3595   3.3645
     3.3912   3.4965   3.5975   3.6909   3.6910   3.7388   3.8559   3.8559
     3.8929   3.9530   3.9530   4.1393   4.1906   4.2175   4.3116   4.4174
     4.9549   4.9816   5.1420   5.1984   5.1985   5.2927   5.2927   5.3213
     5.3220   5.3534   5.4011   5.4012   5.4746   5.4747   5.5208   5.6773

          k = 0.1250 0.3750 0.3750 ( 24478 PWs)   bands (ev):

    -9.4623  -9.4093  -9.4093  -9.3558  -9.3346  -9.2884  -9.2883  -9.2431
    -8.2476  -8.2259  -8.2257  -8.2017  -8.1870  -8.1434  -8.1433  -8.0994
    -3.6261  -3.5746  -3.5746  -3.5453  -3.5092  -3.5092  -3.4577  -3.3352
    -2.8289  -2.8288  -2.7811  -2.7632  -2.5878  -2.5292  -2.3716  -2.3529
    -2.3529  -2.1850  -2.1850  -2.1418  -1.9122  -1.8406  -1.8405  -1.7128
    -1.2543  -1.1537  -1.1537  -0.9129  -0.7886  -0.7886  -0.6249  -0.5680
    -0.5327  -0.4509  -0.4509  -0.3143  -0.2934  -0.1485  -0.0526  -0.0526
     0.0187   0.0305   0.0306   0.0896   0.1308   0.2217   0.2822   0.2824
     1.3475   1.7354   1.7842   1.7842   1.8040   2.0428   2.0650   2.0651
     2.2976   2.3047   2.3047   2.3540   2.3540   2.3644   2.4025   2.6425
     2.6426   2.6777   2.7398   2.7504   2.8435   2.8435   2.8520   2.8871
     3.0042   3.1570   3.1570   3.2795   3.2796   3.2900   3.3876   3.4272
     3.5104   3.5104   3.5540   3.6905   3.8390   3.8762   3.8763   3.9084
     3.9376   3.9377   3.9734   4.0226   4.1541   4.1541   4.1776   4.3079
     4.9426   5.1263   5.1264   5.2043   5.2833   5.2833   5.3637   5.3836
     5.3980   5.4325   5.4325   5.4760   5.5102   5.5103   5.5407   5.5446

          k = 0.3750 0.3750 0.3750 ( 24534 PWs)   bands (ev):

    -9.4263  -9.3766  -9.3766  -9.3766  -9.3263  -9.3263  -9.3263  -9.2770
    -8.2306  -8.1991  -8.1991  -8.1989  -8.1640  -8.1640  -8.1638  -8.1299
    -3.5513  -3.5470  -3.5470  -3.5470  -3.5380  -3.5379  -3.5379  -3.3386
    -2.7172  -2.7171  -2.7171  -2.6132  -2.6132  -2.3359  -2.3358  -2.3358
    -2.3116  -2.3116  -2.2195  -2.2194  -2.2194  -2.1635  -2.1635  -2.1635
    -0.8007  -0.8007  -0.8007  -0.7860  -0.7860  -0.7860  -0.4715  -0.4715
    -0.4715  -0.3712  -0.3601  -0.3601  -0.3458  -0.3458  -0.0928  -0.0927
    -0.0927   0.0068   0.0244   0.0244   0.0246   0.2442   0.2442   0.2444
     1.4812   1.6973   1.9382   1.9382   1.9382   2.1348   2.1348   2.1350
     2.3625   2.3626   2.3626   2.3650   2.3650   2.3650   2.4956   2.4956
     2.6373   2.6374   2.6374   2.7113   2.7113   2.7113   2.8318   2.8318
     2.9385   2.9386   2.9386   2.9628   2.9628   2.9629   3.0464   3.5848
     3.7048   3.7048   3.7048   3.8558   3.8558   3.8819   3.8820   3.8820
     3.9190   3.9190   3.9190   4.0548   4.0548   4.0548   4.1975   4.1975
     5.0872   5.0872   5.3501   5.3502   5.3502   5.3910   5.3910   5.4217
     5.4217   5.4217   5.4436   5.4436   5.4437   5.6488   5.6488   5.6489

          k = 0.1250-0.1250 0.1250 ( 24483 PWs)   bands (ev):

    -9.5381  -9.3973  -9.3973  -9.3968  -9.2798  -9.2798  -9.2791  -9.1819
    -8.2688  -8.2412  -8.2396  -8.2395  -8.1711  -8.1697  -8.1696  -8.0220
    -3.7405  -3.5937  -3.5937  -3.5697  -3.3971  -3.3971  -3.3895  -3.3793
    -2.9980  -2.9708  -2.9708  -2.7383  -2.7328  -2.5302  -2.5277  -2.5277
    -1.8758  -1.7357  -1.7356  -1.7339  -1.7099  -1.6836  -1.4844  -1.4843
    -1.3285  -1.3284  -1.1796  -1.1783  -1.1783  -1.0948  -0.9395  -0.8197
    -0.8157  -0.5946  -0.5807  -0.5806  -0.5806   0.0553   0.0554   0.0562
     0.0563   0.0633   0.0943   0.1920   0.2412   0.2412   0.2497   0.2824
     0.7127   1.6626   1.6841   1.6842   1.8379   2.0832   2.1114   2.1114
     2.2398   2.3000   2.3000   2.4613   2.4649   2.4650   2.4963   2.5119
     2.8491   2.8491   3.0026   3.0187   3.0188   3.0747   3.0787   3.0935
     3.1434   3.1729   3.1729   3.1747   3.1747   3.3018   3.4055   3.4055
     3.5046   3.6707   3.6707   3.7172   3.8045   3.8661   3.8661   3.8676
     3.8795   4.0948   4.1044   4.1044   4.1668   4.2324   4.3711   4.4265
     4.8535   5.0046   5.0046   5.0141   5.2501   5.2698   5.2699   5.3025
     5.3046   5.3928   5.3928   5.4130   5.4469   5.6390   5.6390   5.6873

          k = 0.1250-0.1250 0.3750 ( 24484 PWs)   bands (ev):

    -9.5003  -9.4424  -9.3657  -9.3643  -9.3172  -9.3157  -9.2527  -9.2123
    -8.2585  -8.2465  -8.2188  -8.2150  -8.1899  -8.1863  -8.1220  -8.0612
    -3.6954  -3.6340  -3.5613  -3.5096  -3.4775  -3.4315  -3.4022  -3.3977
    -2.9131  -2.8703  -2.8163  -2.8137  -2.6668  -2.6312  -2.5536  -2.3749
    -2.2060  -2.1285  -1.7962  -1.7764  -1.7487  -1.6597  -1.6180  -1.5379
    -1.3080  -1.2836  -1.2360  -1.2044  -1.1615  -1.0756  -0.7902  -0.6408
    -0.6377  -0.5874  -0.3770  -0.3645  -0.2368  -0.0398  -0.0278  -0.0080
     0.0786   0.0984   0.1376   0.1498   0.1614   0.1883   0.1922   0.2120
     1.1067   1.7208   1.7433   1.7974   1.8146   1.8438   1.9738   2.0278
     2.2248   2.2546   2.3799   2.3888   2.4204   2.5414   2.5853   2.6304
     2.7367   2.7415   2.7907   2.8113   2.8173   2.9003   3.1121   3.1179
     3.1590   3.1690   3.1863   3.1878   3.3337   3.3540   3.4508   3.4736
     3.4869   3.5007   3.5547   3.7107   3.7581   3.7886   3.8571   3.8943
     3.9389   4.0010   4.0294   4.0474   4.1566   4.2121   4.2201   4.4371
     5.0023   5.0126   5.0198   5.1889   5.2019   5.2127   5.2226   5.2431
     5.2830   5.3341   5.3529   5.3546   5.3878   5.5750   5.7191   5.7201

          k =-0.3750 0.1250 0.1250 ( 24484 PWs)   bands (ev):

    -9.5008  -9.4414  -9.3651  -9.3651  -9.3170  -9.3170  -9.2517  -9.2126
    -8.2579  -8.2487  -8.2155  -8.2154  -8.1880  -8.1879  -8.1249  -8.0597
    -3.6938  -3.6151  -3.5661  -3.5661  -3.4413  -3.4413  -3.4268  -3.3526
    -2.9317  -2.8258  -2.7995  -2.7995  -2.6888  -2.6888  -2.5471  -2.4243
    -2.2085  -1.9400  -1.8265  -1.7727  -1.7727  -1.7454  -1.6361  -1.6361
    -1.2929  -1.2929  -1.1744  -1.1744  -1.0883  -0.8561  -0.8134  -0.8094
    -0.7830  -0.6558  -0.3534  -0.1984  -0.1983  -0.0687  -0.0686  -0.0138
     0.0442   0.0443   0.0892   0.0985   0.1850   0.2195   0.2196   0.3488
     1.0729   1.6834   1.7631   1.7648   1.7648   1.8437   2.0584   2.0585
     2.1895   2.3128   2.3128   2.3614   2.4502   2.5784   2.6454   2.6455
     2.7139   2.7140   2.7235   2.7236   2.7849   2.9155   3.1630   3.1700
     3.1700   3.2244   3.2244   3.2620   3.3351   3.3538   3.4270   3.4626
     3.4627   3.4832   3.6016   3.6016   3.6349   3.7704   3.8441   3.8441
     4.0528   4.0630   4.0630   4.0907   4.1253   4.2406   4.2827   4.3942
     4.9797   4.9798   5.0074   5.1330   5.1655   5.2203   5.2203   5.2360
     5.2968   5.3551   5.3551   5.4195   5.5004   5.5005   5.6520   5.6931

          k = 0.3750-0.1250 0.3750 ( 24478 PWs)   bands (ev):

    -9.4636  -9.4091  -9.4091  -9.3546  -9.3328  -9.2886  -9.2886  -9.2447
    -8.2441  -8.2252  -8.2251  -8.2061  -8.1900  -8.1440  -8.1439  -8.0955
    -3.6571  -3.5942  -3.5941  -3.4909  -3.4909  -3.4806  -3.4319  -3.3934
    -2.7939  -2.7938  -2.7807  -2.7233  -2.6806  -2.5297  -2.4295  -2.4295
    -2.3724  -2.1973  -2.1973  -2.1407  -1.8296  -1.7061  -1.7060  -1.5214
    -1.4111  -1.2918  -1.2918  -1.1248  -0.7834  -0.7834  -0.5691  -0.5482
    -0.5335  -0.3715  -0.3255  -0.3255  -0.2929  -0.0829  -0.0828  -0.0083
     0.0560   0.0561   0.0870   0.0922   0.1520   0.1737   0.1972   0.1973
     1.3307   1.6795   1.7881   1.7882   1.8724   1.9282   2.0005   2.0005
     2.2908   2.3647   2.3647   2.3850   2.4062   2.4316   2.4316   2.6609
     2.6609   2.6883   2.7259   2.8028   2.8438   2.8438   2.9181   2.9363
     2.9488   3.0278   3.0278   3.0979   3.2863   3.3425   3.3426   3.5500
     3.5808   3.5811   3.5811   3.7007   3.7007   3.7678   3.9080   3.9096
     4.0167   4.0521   4.0521   4.0723   4.0854   4.1443   4.2239   4.2239
     4.9782   5.0583   5.0583   5.1158   5.1158   5.3137   5.3907   5.3907
     5.3934   5.4618   5.4689   5.4690   5.4816   5.5029   5.5331   5.5859

          k =-0.3750 0.1250 0.3750 ( 24478 PWs)   bands (ev):

    -9.4647  -9.4078  -9.4065  -9.3575  -9.3349  -9.2880  -9.2863  -9.2454
    -8.2428  -8.2304  -8.2264  -8.2012  -8.1823  -8.1513  -8.1478  -8.0919
    -3.6510  -3.6035  -3.5607  -3.5549  -3.5112  -3.4670  -3.4107  -3.3686
    -2.8142  -2.7699  -2.7557  -2.7107  -2.6113  -2.5857  -2.5851  -2.4904
    -2.2352  -2.2306  -2.1446  -2.0173  -1.8576  -1.7938  -1.7855  -1.5990
    -1.3496  -1.2409  -1.2079  -1.0215  -0.9313  -0.7167  -0.7015  -0.6172
    -0.5244  -0.3142  -0.2843  -0.2186  -0.1838  -0.1594  -0.1465  -0.1184
     0.0092   0.0634   0.0745   0.1101   0.1316   0.1501   0.2319   0.3254
     1.3500   1.6658   1.7355   1.7754   1.8018   1.9230   1.9398   2.1460
     2.2514   2.3165   2.3742   2.4110   2.4931   2.5109   2.5167   2.5898
     2.6103   2.6293   2.7213   2.7766   2.7925   2.8152   2.8681   2.9271
     2.9689   3.1008   3.1748   3.1912   3.1956   3.2574   3.4219   3.4245
     3.4731   3.6458   3.6776   3.7362   3.7688   3.7913   3.8830   3.9284
     3.9939   4.0381   4.0386   4.0508   4.0854   4.1020   4.1698   4.3253
     4.9053   5.0381   5.1051   5.1276   5.1534   5.1943   5.3313   5.3797
     5.4055   5.4408   5.4642   5.4872   5.5392   5.5912   5.6187   5.6552

          k = 0.3750-0.3750 0.3750 ( 24534 PWs)   bands (ev):

    -9.4297  -9.3761  -9.3761  -9.3728  -9.3268  -9.3268  -9.3231  -9.2805
    -8.2224  -8.2067  -8.1976  -8.1975  -8.1740  -8.1654  -8.1653  -8.1203
    -3.6222  -3.5838  -3.5838  -3.5022  -3.5022  -3.4824  -3.4721  -3.3968
    -2.7161  -2.6144  -2.5985  -2.5984  -2.5847  -2.5540  -2.5539  -2.5130
    -2.3137  -2.2867  -2.2372  -2.2372  -2.2170  -2.0168  -2.0168  -1.9594
    -1.0589  -0.9615  -0.9615  -0.7432  -0.7432  -0.6159  -0.5158  -0.4924
    -0.4734  -0.3587  -0.3487  -0.2442  -0.2442  -0.1923  -0.1923  -0.0881
    -0.0691   0.0221   0.0849   0.0850   0.0970   0.1299   0.1300   0.2157
     1.5881   1.6805   1.7123   1.9346   1.9347   2.0092   2.0092   2.0563
     2.3449   2.4911   2.4971   2.5127   2.5127   2.5164   2.5825   2.5825
     2.5850   2.6070   2.6070   2.6926   2.6927   2.7550   2.8091   2.8091
     2.8332   2.9093   2.9094   2.9127   2.9174   3.0581   3.0585   3.2820
     3.6935   3.7032   3.7032   3.8019   3.8019   3.8662   3.9493   4.0128
     4.0145   4.0474   4.0584   4.0584   4.0783   4.0918   4.0918   4.1016
     5.0911   5.0912   5.1583   5.2119   5.3003   5.3021   5.3276   5.3276
     5.4532   5.5009   5.5382   5.5382   5.6038   5.6038   5.6098   5.6309

     highest occupied level (ev):     5.7201

!    total energy              =    -493.77849084 Ry
     estimated scf accuracy    <       0.00000048 Ry

     The total energy is the sum of the following terms:
     one-electron contribution =     -16.54296288 Ry
     hartree contribution      =     113.39055918 Ry
     xc contribution           =    -159.72830387 Ry
     ewald contribution        =    -430.89778326 Ry

     convergence has been achieved in  16 iterations

     Forces acting on atoms (cartesian axes, Ry/au):

     atom    1 type  1   force =    -0.23191195   -0.23191195    0.26965991
     atom    2 type  1   force =    -0.23190135   -0.23189484    0.26964395
     atom    3 type  1   force =    -0.23189484   -0.23190135    0.26964395
     atom    4 type  1   force =    -0.23193157   -0.23193157    0.26968205
     atom    5 type  1   force =    -0.23193859   -0.23193859    0.26969482
     atom    6 type  1   force =    -0.23191223   -0.23189724    0.26966256
     atom    7 type  1   force =    -0.23189724   -0.23191223    0.26966256
     atom    8 type  1   force =    -0.23190929   -0.23190929    0.26965479
     atom    9 type  1   force =     0.08917975    0.08917975    0.08917975
     atom   10 type  1   force =     0.08912542    0.08912827    0.08912827
     atom   11 type  1   force =     0.08912827    0.08912542    0.08912827
     atom   12 type  1   force =     0.08914321    0.08914321    0.08913044
     atom   13 type  1   force =     0.08912827    0.08912827    0.08912542
     atom   14 type  1   force =     0.08914321    0.08913044    0.08914321
     atom   15 type  1   force =     0.08913044    0.08914321    0.08914321
     atom   16 type  1   force =     0.08921233    0.08921233    0.08921233
     atom   17 type  1   force =    -0.23191195    0.26965991   -0.23191195
     atom   18 type  1   force =    -0.23190135    0.26964395   -0.23189484
     atom   19 type  1   force =    -0.23193859    0.26969482   -0.23193859
     atom   20 type  1   force =    -0.23191223    0.26966256   -0.23189724
     atom   21 type  1   force =    -0.23189484    0.26964395   -0.23190135
     atom   22 type  1   force =    -0.23193157    0.26968205   -0.23193157
     atom   23 type  1   force =    -0.23189724    0.26966256   -0.23191223
     atom   24 type  1   force =    -0.23190929    0.26965479   -0.23190929
     atom   25 type  1   force =     0.26965991   -0.23191195   -0.23191195
     atom   26 type  1   force =     0.26969482   -0.23193859   -0.23193859
     atom   27 type  1   force =     0.26964395   -0.23190135   -0.23189484
     atom   28 type  1   force =     0.26966256   -0.23191223   -0.23189724
     atom   29 type  1   force =     0.26964395   -0.23189484   -0.23190135
     atom   30 type  1   force =     0.26966256   -0.23189724   -0.23191223
     atom   31 type  1   force =     0.26968205   -0.23193157   -0.23193157
     atom   32 type  1   force =     0.26965479   -0.23190929   -0.23190929
     atom   33 type  1   force =    -0.22134357   -0.22134357    0.33230151
     atom   34 type  1   force =    -0.22132748   -0.22133774    0.33229348
     atom   35 type  1   force =    -0.22133774   -0.22132748    0.33229348
     atom   36 type  1   force =    -0.22131193   -0.22131193    0.33226213
     atom   37 type  1   force =    -0.22132694   -0.22132694    0.33224954
     atom   38 type  1   force =    -0.22132957   -0.22134945    0.33229272
     atom   39 type  1   force =    -0.22134945   -0.22132957    0.33229272
     atom   40 type  1   force =    -0.22132928   -0.22132928    0.33229287
     atom   41 type  1   force =     0.21535856    0.21535856    0.21535856
     atom   42 type  1   force =     0.21540022    0.21539933    0.21539933
     atom   43 type  1   force =     0.21539933    0.21540022    0.21539933
     atom   44 type  1   force =     0.21539957    0.21539957    0.21541004
     atom   45 type  1   force =     0.21539933    0.21539933    0.21540022
     atom   46 type  1   force =     0.21539957    0.21541004    0.21539957
     atom   47 type  1   force =     0.21541004    0.21539957    0.21539957
     atom   48 type  1   force =     0.21536544    0.21536544    0.21536544
     atom   49 type  1   force =    -0.22134357    0.33230151   -0.22134357
     atom   50 type  1   force =    -0.22132748    0.33229348   -0.22133774
     atom   51 type  1   force =    -0.22132694    0.33224954   -0.22132694
     atom   52 type  1   force =    -0.22132957    0.33229272   -0.22134945
     atom   53 type  1   force =    -0.22133774    0.33229348   -0.22132748
     atom   54 type  1   force =    -0.22131193    0.33226213   -0.22131193
     atom   55 type  1   force =    -0.22134945    0.33229272   -0.22132957
     atom   56 type  1   force =    -0.22132928    0.33229287   -0.22132928
     atom   57 type  1   force =     0.33230151   -0.22134357   -0.22134357
     atom   58 type  1   force =     0.33224954   -0.22132694   -0.22132694
     atom   59 type  1   force =     0.33229348   -0.22132748   -0.22133774
     atom   60 type  1   force =     0.33229272   -0.22132957   -0.22134945
     atom   61 type  1   force =     0.33229348   -0.22133774   -0.22132748
     atom   62 type  1   force =     0.33229272   -0.22134945   -0.22132957
     atom   63 type  1   force =     0.33226213   -0.22131193   -0.22131193
     atom   64 type  1   force =     0.33229287   -0.22132928   -0.22132928

     Total force =     3.260728     Total SCF correction =     0.001062


     Computing stress (Cartesian axis) and pressure

          total   stress  (Ry/bohr**3)                   (kbar)     P=      356.93
   0.00242637   0.00008295   0.00008295          356.93       12.20       12.20
   0.00008295   0.00242637   0.00008295           12.20      356.93       12.20
   0.00008295   0.00008295   0.00242637           12.20       12.20      356.93


     Writing all to output data dir ./Si2.save/
 
     init_run     :     92.64s CPU     93.60s WALL (       1 calls)
     electrons    :   2637.09s CPU   2653.10s WALL (       1 calls)
     forces       :     15.55s CPU     15.58s WALL (       1 calls)
     stress       :    139.46s CPU    139.78s WALL (       1 calls)

     Called by init_run:
     wfcinit      :     91.03s CPU     91.88s WALL (       1 calls)
     potinit      :      0.67s CPU      0.73s WALL (       1 calls)
     hinit0       :      0.43s CPU      0.46s WALL (       1 calls)

     Called by electrons:
     c_bands      :   2366.15s CPU   2380.54s WALL (      16 calls)
     sum_band     :    259.79s CPU    261.11s WALL (      16 calls)
     v_of_rho     :     10.57s CPU     10.75s WALL (      17 calls)
     mix_rho      :      1.10s CPU      1.18s WALL (      16 calls)

     Called by c_bands:
     init_us_2    :     25.59s CPU     25.63s WALL (     350 calls)
     init_us_2:cp :     25.57s CPU     25.62s WALL (     350 calls)
     cegterg      :   2319.13s CPU   2333.43s WALL (     160 calls)

     Called by *egterg:
     cdiaghg      :    107.35s CPU    107.77s WALL (    1402 calls)
     h_psi        :   1794.38s CPU   1805.19s WALL (    1412 calls)
     g_psi        :      7.92s CPU      7.98s WALL (    1242 calls)

     Called by h_psi:
     h_psi:calbec :    150.67s CPU    150.74s WALL (    1412 calls)
     vloc_psi     :   1446.02s CPU   1453.62s WALL (    1412 calls)
     add_vuspsi   :    191.97s CPU    192.09s WALL (    1412 calls)

     General routines
     calbec       :    163.60s CPU    163.69s WALL (    1462 calls)
     fft          :      1.74s CPU      1.77s WALL (     177 calls)
     ffts         :      0.16s CPU      0.16s WALL (      16 calls)
     fftw         :   1432.15s CPU   1436.37s WALL (  145636 calls)
 
     Parallel routines
 
     PWSCF        :  48m 5.55s CPU  48m25.96s WALL

 
   This run was terminated on:  15: 5:47  21Feb2022            

=------------------------------------------------------------------------------=
   JOB DONE.
=------------------------------------------------------------------------------=
