
     Program PWSCF v.7.0 starts on 21Feb2022 at  8:50: 0 

     This program is part of the open-source Quantum ESPRESSO suite
     for quantum simulation of materials; please cite
         "P. Giannozzi et al., J. Phys.:Condens. Matter 21 395502 (2009);
         "P. Giannozzi et al., J. Phys.:Condens. Matter 29 465901 (2017);
         "P. Giannozzi et al., J. Chem. Phys. 152 154105 (2020);
          URL http://www.quantum-espresso.org", 
     in publications or presentations arising from this work. More details at
     http://www.quantum-espresso.org/quote

     Parallel version (MPI), running on     1 processors

     MPI processes distributed on     1 nodes
     90690 MiB available memory on the printing compute node when the environment starts
 
     Reading input from Si64.scf.7.in
Warning: card  SI   0.3669964855000001  0.8669964855000001  0.0000000000000000 ignored
Warning: card  SI   0.8669964855000001  0.8669964855000001  0.0000000000000000 ignored
Warning: card  SI   0.3669964855000001  0.3669964855000001  0.5000000000000000 ignored
Warning: card  SI   0.8669964855000001  0.3669964855000001  0.5000000000000000 ignored
Warning: card  SI   0.3669964855000001  0.8669964855000001  0.5000000000000000 ignored
Warning: card  SI   0.8669964855000001  0.8669964855000001  0.5000000000000000 ignored
Warning: card  SI   0.0000000000000000  0.0000000000000000  0.0000000000000000 ignored
Warning: card  SI   0.5000000000000000  0.0000000000000000  0.0000000000000000 ignored
Warning: card  SI   0.0000000000000000  0.5000000000000000  0.0000000000000000 ignored
Warning: card  SI   0.5000000000000000  0.5000000000000000  0.0000000000000000 ignored
Warning: card  SI   0.0000000000000000  0.0000000000000000  0.5000000000000000 ignored
Warning: card  SI   0.5000000000000000  0.0000000000000000  0.5000000000000000 ignored
Warning: card  SI   0.0000000000000000  0.5000000000000000  0.5000000000000000 ignored
Warning: card  SI   0.5000000000000000  0.5000000000000000  0.5000000000000000 ignored
Warning: card  SI   0.3669964855000001  0.0000000000000000  0.3669964855000001 ignored
Warning: card  SI   0.8669964855000001  0.0000000000000000  0.3669964855000001 ignored
Warning: card  SI   0.3669964855000001  0.5000000000000000  0.3669964855000001 ignored
Warning: card  SI   0.8669964855000001  0.5000000000000000  0.3669964855000001 ignored
Warning: card  SI   0.3669964855000001  0.0000000000000000  0.8669964855000001 ignored
Warning: card  SI   0.8669964855000001  0.0000000000000000  0.8669964855000001 ignored
Warning: card  SI   0.3669964855000001  0.5000000000000000  0.8669964855000001 ignored
Warning: card  SI   0.8669964855000001  0.5000000000000000  0.8669964855000001 ignored
Warning: card  SI   0.0000000000000000  0.3669964855000001  0.3669964855000001 ignored
Warning: card  SI   0.5000000000000000  0.3669964855000001  0.3669964855000001 ignored
Warning: card  SI   0.0000000000000000  0.8669964855000001  0.3669964855000001 ignored
Warning: card  SI   0.5000000000000000  0.8669964855000001  0.3669964855000001 ignored
Warning: card  SI   0.0000000000000000  0.3669964855000001  0.8669964855000001 ignored
Warning: card  SI   0.5000000000000000  0.3669964855000001  0.8669964855000001 ignored
Warning: card  SI   0.0000000000000000  0.8669964855000001  0.8669964855000001 ignored
Warning: card  SI   0.5000000000000000  0.8669964855000001  0.8669964855000001 ignored
Warning: card  SI   0.0504947279999999  0.0504947279999999  0.6834982425000000 ignored
Warning: card  SI   0.5504947279999999  0.0504947279999999  0.6834982425000000 ignored
Warning: card  SI   0.0504947279999999  0.5504947279999999  0.6834982425000000 ignored
Warning: card  SI   0.5504947279999999  0.5504947279999999  0.6834982425000000 ignored
Warning: card  SI   0.0504947279999999  0.0504947279999999  0.1834982425000000 ignored
Warning: card  SI   0.5504947279999999  0.0504947279999999  0.1834982425000000 ignored
Warning: card  SI   0.0504947279999999  0.5504947279999999  0.1834982425000000 ignored
Warning: card  SI   0.5504947279999999  0.5504947279999999  0.1834982425000000 ignored
Warning: card  SI   0.6834982425000000  0.6834982425000000  0.6834982425000000 ignored
Warning: card  SI   0.1834982425000000  0.6834982425000000  0.6834982425000000 ignored
Warning: card  SI   0.6834982425000000  0.1834982425000000  0.6834982425000000 ignored
Warning: card  SI   0.1834982425000000  0.1834982425000000  0.6834982425000000 ignored
Warning: card  SI   0.6834982425000000  0.6834982425000000  0.1834982425000000 ignored
Warning: card  SI   0.1834982425000000  0.6834982425000000  0.1834982425000000 ignored
Warning: card  SI   0.6834982425000000  0.1834982425000000  0.1834982425000000 ignored
Warning: card  SI   0.1834982425000000  0.1834982425000000  0.1834982425000000 ignored
Warning: card  SI   0.0504947279999999  0.6834982425000000  0.0504947279999999 ignored
Warning: card  SI   0.5504947279999999  0.6834982425000000  0.0504947279999999 ignored
Warning: card  SI   0.0504947279999999  0.1834982425000000  0.0504947279999999 ignored
Warning: card  SI   0.5504947279999999  0.1834982425000000  0.0504947279999999 ignored
Warning: card  SI   0.0504947279999999  0.6834982425000000  0.5504947279999999 ignored
Warning: card  SI   0.5504947279999999  0.6834982425000000  0.5504947279999999 ignored
Warning: card  SI   0.0504947279999999  0.1834982425000000  0.5504947279999999 ignored
Warning: card  SI   0.5504947279999999  0.1834982425000000  0.5504947279999999 ignored
Warning: card  SI   0.6834982425000000  0.0504947279999999  0.0504947279999999 ignored
Warning: card  SI   0.1834982425000000  0.0504947279999999  0.0504947279999999 ignored
Warning: card  SI   0.6834982425000000  0.5504947279999999  0.0504947279999999 ignored
Warning: card  SI   0.1834982425000000  0.5504947279999999  0.0504947279999999 ignored
Warning: card  SI   0.6834982425000000  0.0504947279999999  0.5504947279999999 ignored
Warning: card  SI   0.1834982425000000  0.0504947279999999  0.5504947279999999 ignored
Warning: card  SI   0.6834982425000000  0.5504947279999999  0.5504947279999999 ignored
Warning: card  SI   0.1834982425000000  0.5504947279999999  0.5504947279999999 ignored

     Current dimensions of program PWSCF are:
     Max number of different atomic species (ntypx) = 10
     Max number of k-points (npk) =  40000
     Max angular momentum in pseudopotentials (lmaxx) =  4

 %%%%%%%%%%%%%%%%%%%%%%%%%%%%%%%%%%%%%%%%%%%%%%%%%%%%%%%%%%%%%%%%%%%%%%%%%%%%%%
     Error in routine set_cutoff (1):
      ecutwfc not set
 %%%%%%%%%%%%%%%%%%%%%%%%%%%%%%%%%%%%%%%%%%%%%%%%%%%%%%%%%%%%%%%%%%%%%%%%%%%%%%

     stopping ...
