
     Program PWSCF v.6.7MaX starts on 24Feb2022 at 22:16: 8 

     This program is part of the open-source Quantum ESPRESSO suite
     for quantum simulation of materials; please cite
         "P. Giannozzi et al., J. Phys.:Condens. Matter 21 395502 (2009);
         "P. Giannozzi et al., J. Phys.:Condens. Matter 29 465901 (2017);
          URL http://www.quantum-espresso.org", 
     in publications or presentations arising from this work. More details at
     http://www.quantum-espresso.org/quote

     Parallel version (MPI), running on    40 processors

     MPI processes distributed on     1 nodes
     R & G space division:  proc/nbgrp/npool/nimage =      40
     Waiting for input...
     Reading input from standard input

     Current dimensions of program PWSCF are:
     Max number of different atomic species (ntypx) = 10
     Max number of k-points (npk) =  40000
     Max angular momentum in pseudopotentials (lmaxx) =  3

     Subspace diagonalization in iterative solution of the eigenvalue problem:
     a serial algorithm will be used

     Found symmetry operation: I + (  0.5000  0.5000  0.0000)
     This is a supercell, fractional translations are disabled
     Message from routine setup:
     using ibrav=0 with symmetry is DISCOURAGED, use correct ibrav instead

     Parallelization info
     --------------------
     sticks:   dense  smooth     PW     G-vecs:    dense   smooth      PW
     Min          50      50     14                 1728     1728     264
     Max          51      51     15                 1733     1733     269
     Sum        2029    2029    593                69239    69239   10635



     bravais-lattice index     =            0
     lattice parameter (alat)  =      10.3330  a.u.
     unit-cell volume          =    1103.2623 (a.u.)^3
     number of atoms/cell      =            8
     number of atomic types    =            1
     number of electrons       =        32.00
     number of Kohn-Sham states=           16
     kinetic-energy cutoff     =      60.0000  Ry
     charge density cutoff     =     240.0000  Ry
     scf convergence threshold =      1.0E-06
     mixing beta               =       0.7000
     number of iterations used =            8  plain     mixing
     Exchange-correlation=  SLA  PW   PBE  PBE
                           (   1   4   3   4   0   0   0)

     celldm(1)=  10.332996  celldm(2)=   0.000000  celldm(3)=   0.000000
     celldm(4)=   0.000000  celldm(5)=   0.000000  celldm(6)=   0.000000

     crystal axes: (cart. coord. in units of alat)
               a(1) = (   1.000000   0.000000   0.000000 )  
               a(2) = (   0.000000   1.000000   0.000000 )  
               a(3) = (   0.000000   0.000000   1.000000 )  

     reciprocal axes: (cart. coord. in units 2 pi/alat)
               b(1) = (  1.000000  0.000000  0.000000 )  
               b(2) = (  0.000000  1.000000  0.000000 )  
               b(3) = (  0.000000  0.000000  1.000000 )  


     PseudoPot. # 1 for Si read from file:
     ./Si.pbe-rrkj.UPF
     MD5 check sum: cf7ab5690cd9a85b22c4813f7e365554
     Pseudo is Norm-conserving, Zval =  4.0
     Generated by new atomic code, or converted to UPF format
     Using radial grid of  883 points,  3 beta functions with: 
                l(1) =   0
                l(2) =   0
                l(3) =   1

     atomic species   valence    mass     pseudopotential
        Si             4.00    28.08600     Si( 1.00)

     24 Sym. Ops. (no inversion) found



   Cartesian axes

     site n.     atom                  positions (alat units)
         1           Si  tau(   1) = (   0.5000000   0.5000000   0.0000000  )
         2           Si  tau(   2) = (   0.0000000   0.0000000   0.0000000  )
         3           Si  tau(   3) = (   0.5000000   0.0000000   0.5000000  )
         4           Si  tau(   4) = (   0.0000000   0.5000000   0.5000000  )
         5           Si  tau(   5) = (   0.7500000   0.7500000   0.2500000  )
         6           Si  tau(   6) = (   0.2500000   0.2500000   0.2500000  )
         7           Si  tau(   7) = (   0.7500000   0.2500000   0.7500000  )
         8           Si  tau(   8) = (   0.2500000   0.7500000   0.7500000  )

     number of k points=    10
                       cart. coord. in units 2pi/alat
        k(    1) = (   0.1000000   0.1000000   0.1000000), wk =   0.1280000
        k(    2) = (   0.1000000   0.1000000   0.3000000), wk =   0.3840000
        k(    3) = (   0.1000000   0.1000000  -0.5000000), wk =   0.1920000
        k(    4) = (   0.1000000   0.3000000   0.3000000), wk =   0.3840000
        k(    5) = (   0.1000000   0.3000000  -0.5000000), wk =   0.3840000
        k(    6) = (   0.1000000  -0.5000000  -0.5000000), wk =   0.0960000
        k(    7) = (   0.3000000   0.3000000   0.3000000), wk =   0.1280000
        k(    8) = (   0.3000000   0.3000000  -0.5000000), wk =   0.1920000
        k(    9) = (   0.3000000  -0.5000000  -0.5000000), wk =   0.0960000
        k(   10) = (  -0.5000000  -0.5000000  -0.5000000), wk =   0.0160000

     Dense  grid:    69239 G-vectors     FFT dimensions: (  54,  54,  54)

     Estimated max dynamical RAM per process >       2.31 MB

     Estimated total dynamical RAM >      92.52 MB

     Initial potential from superposition of free atoms

     starting charge   31.99557, renormalised to   32.00000
     Starting wfcs are   32 randomized atomic wfcs

     total cpu time spent up to now is       21.0 secs

     Self-consistent Calculation

     iteration #  1     ecut=    60.00 Ry     beta= 0.70
     Davidson diagonalization with overlap
     ethr =  1.00E-02,  avg # of iterations =  2.0

     Threshold (ethr) on eigenvalues was too large:
     Diagonalizing with lowered threshold

     Davidson diagonalization with overlap
     ethr =  5.70E-04,  avg # of iterations =  2.0

     total cpu time spent up to now is      140.4 secs

     total energy              =     -62.95791355 Ry
     estimated scf accuracy    <       0.21452569 Ry

     iteration #  2     ecut=    60.00 Ry     beta= 0.70
     Davidson diagonalization with overlap
     ethr =  6.70E-04,  avg # of iterations =  1.0

     total cpu time spent up to now is      179.1 secs

     total energy              =     -62.96479248 Ry
     estimated scf accuracy    <       0.01241149 Ry

     iteration #  3     ecut=    60.00 Ry     beta= 0.70
     Davidson diagonalization with overlap
     ethr =  3.88E-05,  avg # of iterations =  2.3

     total cpu time spent up to now is      241.8 secs

     total energy              =     -62.96720635 Ry
     estimated scf accuracy    <       0.00037432 Ry

     iteration #  4     ecut=    60.00 Ry     beta= 0.70
     Davidson diagonalization with overlap
     ethr =  1.17E-06,  avg # of iterations =  5.1

     total cpu time spent up to now is      345.1 secs

     total energy              =     -62.96748122 Ry
     estimated scf accuracy    <       0.00002186 Ry

     iteration #  5     ecut=    60.00 Ry     beta= 0.70
     Davidson diagonalization with overlap
     ethr =  6.83E-08,  avg # of iterations =  4.2

     total cpu time spent up to now is      430.5 secs

     End of self-consistent calculation

          k = 0.1000 0.1000 0.1000 (  8649 PWs)   bands (ev):

    -5.6183  -2.3697  -2.3697  -2.3693  -0.8970  -0.8970  -0.8967   2.8119
     2.8119   2.8121   3.3313   3.3315   3.3315   4.8892   5.8227   5.8227

          k = 0.1000 0.1000 0.3000 (  8677 PWs)   bands (ev):

    -5.2781  -3.6244  -2.2463  -2.2460  -0.9167  -0.9165   0.6705   2.1908
     2.1909   3.1035   3.1036   3.2274   3.6011   3.6348   5.0298   5.1931

          k = 0.1000 0.1000-0.5000 (  8708 PWs)   bands (ev):

    -4.6069  -4.6065  -2.1561  -2.1558  -0.9480  -0.9478   1.9793   1.9794
     2.1980   2.1981   2.8532   2.8532   4.0664   4.0667   4.2215   4.2220

          k = 0.1000 0.3000 0.3000 (  8641 PWs)   bands (ev):

    -4.9481  -3.3731  -3.3728  -2.4808  -0.7791   0.2303   0.2304   1.8788
     2.4333   2.6702   2.6702   3.6592   3.6595   3.8513   4.2894   5.5199

          k = 0.1000 0.3000-0.5000 (  8648 PWs)   bands (ev):

    -4.3020  -4.3016  -2.9348  -2.9344  -0.3589  -0.3588   1.3083   1.3085
     2.1238   2.1240   3.4088   3.4090   3.8391   3.8391   4.6987   4.6988

          k = 0.1000-0.5000-0.5000 (  8664 PWs)   bands (ev):

    -3.7194  -3.7193  -3.7193  -3.7187   0.3942   0.3943   0.3943   0.3945
     2.6422   2.6425   2.6425   2.6427   4.7263   4.7265   4.7268   4.7268

          k = 0.3000 0.3000 0.3000 (  8685 PWs)   bands (ev):

    -4.6350  -3.2292  -3.2292  -3.2287  -0.3671  -0.3671  -0.3671   1.3055
     2.9509   2.9509   2.9513   4.1057   4.1059   4.1059   5.1197   5.1197

          k = 0.3000 0.3000-0.5000 (  8660 PWs)   bands (ev):

    -4.0351  -4.0348  -3.1225  -3.1221  -0.6875  -0.6875   0.3315   0.3317
     3.1183   3.1187   4.2228   4.2229   4.3640   4.3641   4.5691   4.5695

          k = 0.3000-0.5000-0.5000 (  8628 PWs)   bands (ev):

    -3.5722  -3.5722  -3.5722  -3.5715  -0.4405  -0.4403  -0.4403  -0.4401
     3.9550   3.9552   3.9552   3.9555   4.7941   4.7943   4.7946   4.7946

          k =-0.5000-0.5000-0.5000 (  8552 PWs)   bands (ev):

    -3.4631  -3.4631  -3.4631  -3.4624  -0.8249  -0.8247  -0.8247  -0.8247
     4.8388   4.8388   4.8390   4.8390   4.8390   4.8394   4.8394   4.8394

     highest occupied level (ev):     5.8227

!    total energy              =     -62.96749199 Ry
     estimated scf accuracy    <       0.00000044 Ry

     The total energy is the sum of the following terms:
     one-electron contribution =      18.47544270 Ry
     hartree contribution      =       4.44915100 Ry
     xc contribution           =     -19.16311787 Ry
     ewald contribution        =     -66.72896782 Ry

     convergence has been achieved in   5 iterations

     Forces acting on atoms (cartesian axes, Ry/au):

     atom    1 type  1   force =     0.00000000    0.00000000    0.00000000
     atom    2 type  1   force =     0.00000000    0.00000000    0.00000000
     atom    3 type  1   force =     0.00000000    0.00000000    0.00000000
     atom    4 type  1   force =     0.00000000    0.00000000    0.00000000
     atom    5 type  1   force =     0.00000423    0.00000423   -0.00000423
     atom    6 type  1   force =    -0.00000423   -0.00000423   -0.00000423
     atom    7 type  1   force =     0.00000423   -0.00000423    0.00000423
     atom    8 type  1   force =    -0.00000423    0.00000423    0.00000423

     Total force =     0.000015     Total SCF correction =     0.000340
     SCF correction compared to forces is large: reduce conv_thr to get better values


     Computing stress (Cartesian axis) and pressure

          total   stress  (Ry/bohr**3)                   (kbar)     P=        3.45
   0.00002343   0.00000000   0.00000000            3.45        0.00        0.00
   0.00000000   0.00002343   0.00000000            0.00        3.45        0.00
   0.00000000   0.00000000   0.00002343            0.00        0.00        3.45


     Writing output data file ./Si8.save/

     init_run     :      8.01s CPU     20.69s WALL (       1 calls)
     electrons    :    166.23s CPU    409.52s WALL (       1 calls)
     forces       :     10.71s CPU     24.35s WALL (       1 calls)
     stress       :      1.49s CPU      4.95s WALL (       1 calls)

     Called by init_run:
     wfcinit      :      7.96s CPU     20.64s WALL (       1 calls)
     potinit      :      0.01s CPU      0.01s WALL (       1 calls)
     hinit0       :      0.01s CPU      0.01s WALL (       1 calls)

     Called by electrons:
     c_bands      :    165.43s CPU    408.55s WALL (       6 calls)
     sum_band     :      0.68s CPU      0.80s WALL (       6 calls)
     v_of_rho     :      0.02s CPU      0.03s WALL (       6 calls)
     mix_rho      :      0.00s CPU      0.00s WALL (       6 calls)

     Called by c_bands:
     init_us_2    :      0.01s CPU      0.05s WALL (     150 calls)
     cegterg      :    157.04s CPU    393.17s WALL (      60 calls)

     Called by *egterg:
     cdiaghg      :     16.91s CPU     30.41s WALL (     216 calls)
     h_psi        :     54.65s CPU    163.90s WALL (     236 calls)
     g_psi        :      0.00s CPU      0.00s WALL (     166 calls)

     Called by h_psi:
     h_psi:calbec :     32.05s CPU    101.22s WALL (     236 calls)
     vloc_psi     :     12.83s CPU     15.20s WALL (     236 calls)
     add_vuspsi   :      9.76s CPU     47.47s WALL (     236 calls)

     General routines
     calbec       :     44.07s CPU    129.90s WALL (     286 calls)
     fft          :      0.03s CPU      0.05s WALL (      68 calls)
     ffts         :      0.00s CPU      0.00s WALL (       6 calls)
     fftw         :     13.45s CPU     15.76s WALL (    7246 calls)

     Parallel routines
     fft_scatt_xy :      0.06s CPU      0.07s WALL (    7320 calls)
     fft_scatt_yz :     13.02s CPU     15.22s WALL (    7320 calls)

     PWSCF        :   3m 6.73s CPU   7m39.98s WALL


   This run was terminated on:  22:23:48  24Feb2022            

=------------------------------------------------------------------------------=
   JOB DONE.
=------------------------------------------------------------------------------=
