
     Program PWSCF v.6.7MaX starts on 24Feb2022 at 22:29:53 

     This program is part of the open-source Quantum ESPRESSO suite
     for quantum simulation of materials; please cite
         "P. Giannozzi et al., J. Phys.:Condens. Matter 21 395502 (2009);
         "P. Giannozzi et al., J. Phys.:Condens. Matter 29 465901 (2017);
          URL http://www.quantum-espresso.org", 
     in publications or presentations arising from this work. More details at
     http://www.quantum-espresso.org/quote

     Parallel version (MPI), running on    40 processors

     MPI processes distributed on     1 nodes
     R & G space division:  proc/nbgrp/npool/nimage =      40
     Waiting for input...
     Reading input from standard input

     Current dimensions of program PWSCF are:
     Max number of different atomic species (ntypx) = 10
     Max number of k-points (npk) =  40000
     Max angular momentum in pseudopotentials (lmaxx) =  3

     Subspace diagonalization in iterative solution of the eigenvalue problem:
     a serial algorithm will be used

     Found symmetry operation: I + (  0.5000  0.5000  0.0000)
     This is a supercell, fractional translations are disabled
     Message from routine setup:
     using ibrav=0 with symmetry is DISCOURAGED, use correct ibrav instead

     Parallelization info
     --------------------
     sticks:   dense  smooth     PW     G-vecs:    dense   smooth      PW
     Min          42      42     12                 1312     1312     204
     Max          43      43     13                 1315     1315     209
     Sum        1693    1693    489                52515    52515    8217



     bravais-lattice index     =            0
     lattice parameter (alat)  =      10.3330  a.u.
     unit-cell volume          =    1103.2623 (a.u.)^3
     number of atoms/cell      =            8
     number of atomic types    =            1
     number of electrons       =        32.00
     number of Kohn-Sham states=           16
     kinetic-energy cutoff     =      50.0000  Ry
     charge density cutoff     =     200.0000  Ry
     scf convergence threshold =      1.0E-06
     mixing beta               =       0.7000
     number of iterations used =            8  plain     mixing
     Exchange-correlation=  SLA  PW   PBE  PBE
                           (   1   4   3   4   0   0   0)

     celldm(1)=  10.332996  celldm(2)=   0.000000  celldm(3)=   0.000000
     celldm(4)=   0.000000  celldm(5)=   0.000000  celldm(6)=   0.000000

     crystal axes: (cart. coord. in units of alat)
               a(1) = (   1.000000   0.000000   0.000000 )  
               a(2) = (   0.000000   1.000000   0.000000 )  
               a(3) = (   0.000000   0.000000   1.000000 )  

     reciprocal axes: (cart. coord. in units 2 pi/alat)
               b(1) = (  1.000000  0.000000  0.000000 )  
               b(2) = (  0.000000  1.000000  0.000000 )  
               b(3) = (  0.000000  0.000000  1.000000 )  


     PseudoPot. # 1 for Si read from file:
     ./Si.pbe-rrkj.UPF
     MD5 check sum: cf7ab5690cd9a85b22c4813f7e365554
     Pseudo is Norm-conserving, Zval =  4.0
     Generated by new atomic code, or converted to UPF format
     Using radial grid of  883 points,  3 beta functions with: 
                l(1) =   0
                l(2) =   0
                l(3) =   1

     atomic species   valence    mass     pseudopotential
        Si             4.00    28.08600     Si( 1.00)

     24 Sym. Ops. (no inversion) found



   Cartesian axes

     site n.     atom                  positions (alat units)
         1           Si  tau(   1) = (   0.5000000   0.5000000   0.0000000  )
         2           Si  tau(   2) = (   0.0000000   0.0000000   0.0000000  )
         3           Si  tau(   3) = (   0.5000000   0.0000000   0.5000000  )
         4           Si  tau(   4) = (   0.0000000   0.5000000   0.5000000  )
         5           Si  tau(   5) = (   0.7500000   0.7500000   0.2500000  )
         6           Si  tau(   6) = (   0.2500000   0.2500000   0.2500000  )
         7           Si  tau(   7) = (   0.7500000   0.2500000   0.7500000  )
         8           Si  tau(   8) = (   0.2500000   0.7500000   0.7500000  )

     number of k points=    35
                       cart. coord. in units 2pi/alat
        k(    1) = (   0.0555556   0.0555556   0.0555556), wk =   0.0219479
        k(    2) = (   0.0555556   0.0555556   0.1666667), wk =   0.0658436
        k(    3) = (   0.0555556   0.0555556   0.2777778), wk =   0.0658436
        k(    4) = (   0.0555556   0.0555556   0.3888889), wk =   0.0658436
        k(    5) = (   0.0555556   0.0555556  -0.5000000), wk =   0.0329218
        k(    6) = (   0.0555556   0.1666667   0.1666667), wk =   0.0658436
        k(    7) = (   0.0555556   0.1666667   0.2777778), wk =   0.1316872
        k(    8) = (   0.0555556   0.1666667   0.3888889), wk =   0.1316872
        k(    9) = (   0.0555556   0.1666667  -0.5000000), wk =   0.0658436
        k(   10) = (   0.0555556   0.2777778   0.2777778), wk =   0.0658436
        k(   11) = (   0.0555556   0.2777778   0.3888889), wk =   0.1316872
        k(   12) = (   0.0555556   0.2777778  -0.5000000), wk =   0.0658436
        k(   13) = (   0.0555556   0.3888889   0.3888889), wk =   0.0658436
        k(   14) = (   0.0555556   0.3888889  -0.5000000), wk =   0.0658436
        k(   15) = (   0.0555556  -0.5000000  -0.5000000), wk =   0.0164609
        k(   16) = (   0.1666667   0.1666667   0.1666667), wk =   0.0219479
        k(   17) = (   0.1666667   0.1666667   0.2777778), wk =   0.0658436
        k(   18) = (   0.1666667   0.1666667   0.3888889), wk =   0.0658436
        k(   19) = (   0.1666667   0.1666667  -0.5000000), wk =   0.0329218
        k(   20) = (   0.1666667   0.2777778   0.2777778), wk =   0.0658436
        k(   21) = (   0.1666667   0.2777778   0.3888889), wk =   0.1316872
        k(   22) = (   0.1666667   0.2777778  -0.5000000), wk =   0.0658436
        k(   23) = (   0.1666667   0.3888889   0.3888889), wk =   0.0658436
        k(   24) = (   0.1666667   0.3888889  -0.5000000), wk =   0.0658436
        k(   25) = (   0.1666667  -0.5000000  -0.5000000), wk =   0.0164609
        k(   26) = (   0.2777778   0.2777778   0.2777778), wk =   0.0219479
        k(   27) = (   0.2777778   0.2777778   0.3888889), wk =   0.0658436
        k(   28) = (   0.2777778   0.2777778  -0.5000000), wk =   0.0329218
        k(   29) = (   0.2777778   0.3888889   0.3888889), wk =   0.0658436
        k(   30) = (   0.2777778   0.3888889  -0.5000000), wk =   0.0658436
        k(   31) = (   0.2777778  -0.5000000  -0.5000000), wk =   0.0164609
        k(   32) = (   0.3888889   0.3888889   0.3888889), wk =   0.0219479
        k(   33) = (   0.3888889   0.3888889  -0.5000000), wk =   0.0329218
        k(   34) = (   0.3888889  -0.5000000  -0.5000000), wk =   0.0164609
        k(   35) = (  -0.5000000  -0.5000000  -0.5000000), wk =   0.0027435

     Dense  grid:    52515 G-vectors     FFT dimensions: (  48,  48,  48)

     Estimated max dynamical RAM per process >       2.82 MB

     Estimated total dynamical RAM >     112.63 MB

     Initial potential from superposition of free atoms

     starting charge   31.99557, renormalised to   32.00000
     Starting wfcs are   32 randomized atomic wfcs

     total cpu time spent up to now is       47.2 secs

     Self-consistent Calculation

     iteration #  1     ecut=    50.00 Ry     beta= 0.70
     Davidson diagonalization with overlap
     ethr =  1.00E-02,  avg # of iterations =  2.0

     Threshold (ethr) on eigenvalues was too large:
     Diagonalizing with lowered threshold

     Davidson diagonalization with overlap
     ethr =  5.70E-04,  avg # of iterations =  2.0

     total cpu time spent up to now is      314.8 secs

     total energy              =     -62.95807667 Ry
     estimated scf accuracy    <       0.21453351 Ry

     iteration #  2     ecut=    50.00 Ry     beta= 0.70
     Davidson diagonalization with overlap
     ethr =  6.70E-04,  avg # of iterations =  1.0

     total cpu time spent up to now is      409.0 secs

     total energy              =     -62.96492132 Ry
     estimated scf accuracy    <       0.01235717 Ry

     iteration #  3     ecut=    50.00 Ry     beta= 0.70
     Davidson diagonalization with overlap
     ethr =  3.86E-05,  avg # of iterations =  2.2

     total cpu time spent up to now is      550.6 secs

     total energy              =     -62.96729172 Ry
     estimated scf accuracy    <       0.00035918 Ry

     iteration #  4     ecut=    50.00 Ry     beta= 0.70
     Davidson diagonalization with overlap
     ethr =  1.12E-06,  avg # of iterations =  5.5

     total cpu time spent up to now is      773.8 secs

     total energy              =     -62.96759015 Ry
     estimated scf accuracy    <       0.00001583 Ry

     iteration #  5     ecut=    50.00 Ry     beta= 0.70
     Davidson diagonalization with overlap
     ethr =  4.95E-08,  avg # of iterations =  5.2

     total cpu time spent up to now is      984.6 secs

     End of self-consistent calculation

          k = 0.0556 0.0556 0.0556 (  6604 PWs)   bands (ev):

    -5.7071  -2.0818  -2.0818  -2.0815  -1.2456  -1.2456  -1.2454   3.0712
     3.0712   3.0713   3.2577   3.2578   3.2578   5.5910   5.9503   5.9503

          k = 0.0556 0.0556 0.1667 (  6609 PWs)   bands (ev):

    -5.6012  -2.8503  -2.0409  -2.0408  -1.2283  -1.2282  -0.3586   2.7136
     2.7137   3.1581   3.1582   3.1768   3.3530   4.9595   5.5979   5.7410

          k = 0.0556 0.0556 0.2778 (  6602 PWs)   bands (ev):

    -5.3903  -3.5418  -1.9732  -1.9731  -1.2041  -1.2040   0.5638   2.3643
     2.3643   2.8960   2.8960   3.3878   3.5421   4.1870   5.1117   5.2124

          k = 0.0556 0.0556 0.3889 (  6586 PWs)   bands (ev):

    -5.0758  -4.1474  -1.9072  -1.9070  -1.1866  -1.1865   1.5018   2.1287
     2.1288   2.6584   2.6584   3.3366   3.7035   3.8219   4.6236   4.6356

          k = 0.0556 0.0556-0.5000 (  6558 PWs)   bands (ev):

    -4.6605  -4.6602  -1.8790  -1.8788  -1.1811  -1.1809   2.0479   2.0480
     2.4337   2.4338   2.5650   2.5650   4.1219   4.1221   4.1860   4.1862

          k = 0.0556 0.1667 0.1667 (  6613 PWs)   bands (ev):

    -5.4962  -2.7853  -2.7851  -2.0471  -1.1888  -0.3946  -0.3945   2.2869
     2.8322   2.8323   3.2769   3.2770   3.4251   4.3056   5.2873   5.8580

          k = 0.0556 0.1667 0.2778 (  6611 PWs)   bands (ev):

    -5.2870  -3.4621  -2.6630  -2.0840  -1.1029  -0.4786   0.4513   1.9871
     2.4635   3.0636   3.0956   3.4074   3.5204   3.5811   4.7894   5.5551

          k = 0.0556 0.1667 0.3889 (  6587 PWs)   bands (ev):

    -4.9755  -4.0580  -2.5008  -2.1779  -0.9659  -0.6171   1.2809   1.8687
     2.1485   2.8393   2.9950   3.2226   3.3941   3.8973   4.2774   4.9935

          k = 0.0556 0.1667-0.5000 (  6596 PWs)   bands (ev):

    -4.5645  -4.5643  -2.3270  -2.3268  -0.7923  -0.7922   1.9341   1.9341
     2.0768   2.0769   3.0486   3.0486   3.8046   3.8047   4.4031   4.4032

          k = 0.0556 0.2778 0.2778 (  6594 PWs)   bands (ev):

    -5.0816  -3.3076  -3.3074  -2.2847  -0.9187   0.2344   0.2344   1.7909
     2.6604   2.6605   2.9040   3.4857   3.4859   3.7477   4.2909   5.6266

          k = 0.0556 0.2778 0.3889 (  6582 PWs)   bands (ev):

    -4.7762  -3.8823  -3.0890  -2.5445  -0.6683  -0.0556   0.9158   1.7914
     2.2331   2.2720   2.9518   3.5412   3.7857   3.8008   4.0342   5.2679

          k = 0.0556 0.2778-0.5000 (  6594 PWs)   bands (ev):

    -4.3747  -4.3745  -2.8252  -2.8250  -0.3709  -0.3708   1.5751   1.5752
     1.9653   1.9654   3.3310   3.3311   3.6772   3.6773   4.6696   4.6696

          k = 0.0556 0.3889 0.3889 (  6575 PWs)   bands (ev):

    -4.4812  -3.6272  -3.6271  -2.9341  -0.3218   0.4924   0.4925   1.6277
     1.8933   2.5122   2.5122   3.2926   4.1943   4.1945   4.1968   5.2290

          k = 0.0556 0.3889-0.5000 (  6572 PWs)   bands (ev):

    -4.0955  -4.0953  -3.3048  -3.3046   0.0694   0.0695   1.0480   1.0481
     2.1451   2.1452   2.8583   2.8584   4.2965   4.2965   4.8205   4.8205

          k = 0.0556-0.5000-0.5000 (  6576 PWs)   bands (ev):

    -3.7348  -3.7347  -3.7347  -3.7343   0.5413   0.5413   0.5413   0.5414
     2.4513   2.4514   2.4514   2.4515   4.7189   4.7190   4.7191   4.7191

          k = 0.1667 0.1667 0.1667 (  6580 PWs)   bands (ev):

    -5.3922  -2.7365  -2.7365  -2.7363  -0.4522  -0.4522  -0.4521   2.4720
     2.4720   2.4721   3.5168   3.5169   3.5169   3.6755   5.5762   5.5762

          k = 0.1667 0.1667 0.2778 (  6579 PWs)   bands (ev):

    -5.1851  -3.3906  -2.6545  -2.6543  -0.5579  -0.5578   0.2857   2.2294
     2.2295   2.8448   2.9841   3.5167   3.5167   3.6985   5.1577   5.3784

          k = 0.1667 0.1667 0.3889 (  6585 PWs)   bands (ev):

    -4.8770  -3.9732  -2.5729  -2.5727  -0.6697  -0.6697   0.9839   2.1231
     2.1232   2.3080   3.3907   3.3908   3.3925   3.9655   4.7165   4.7801

          k = 0.1667 0.1667-0.5000 (  6606 PWs)   bands (ev):

    -4.4714  -4.4712  -2.5375  -2.5373  -0.7192  -0.7192   1.6487   1.6488
     2.1003   2.1004   3.3228   3.3228   4.0669   4.0670   4.3096   4.3098

          k = 0.1667 0.2778 0.2778 (  6578 PWs)   bands (ev):

    -4.9824  -3.2558  -3.2556  -2.6659  -0.6545   0.0069   0.0070   2.1417
     2.3219   2.6797   2.6798   3.7419   3.7420   3.8307   4.8296   5.4631

          k = 0.1667 0.2778 0.3889 (  6577 PWs)   bands (ev):

    -4.6818  -3.8083  -3.0768  -2.7396  -0.6708  -0.2989   0.5517   1.6905
     2.2043   2.5312   3.2508   3.7427   3.8946   4.1002   4.3494   5.1449

          k = 0.1667 0.2778-0.5000 (  6562 PWs)   bands (ev):

    -4.2880  -4.2878  -2.8886  -2.8884  -0.5465  -0.5464   1.1038   1.1039
     2.3583   2.3585   3.8110   3.8110   3.8254   3.8255   4.6007   4.6008

          k = 0.1667 0.3889 0.3889 (  6585 PWs)   bands (ev):

    -4.3939  -3.5743  -3.5741  -2.9955  -0.5383   0.1115   0.1115   1.1039
     2.3983   2.9808   2.9808   3.8953   4.2590   4.2592   4.2612   5.1803

          k = 0.1667 0.3889-0.5000 (  6582 PWs)   bands (ev):

    -4.0207  -4.0205  -3.2915  -3.2913  -0.2669  -0.2668   0.5760   0.5761
     2.6727   2.6729   3.4343   3.4344   4.3575   4.3576   4.8141   4.8142

          k = 0.1667-0.5000-0.5000 (  6576 PWs)   bands (ev):

    -3.6815  -3.6814  -3.6814  -3.6810   0.1117   0.1118   0.1118   0.1120
     3.0364   3.0366   3.0366   3.0367   4.7447   4.7448   4.7450   4.7450

          k = 0.2778 0.2778 0.2778 (  6583 PWs)   bands (ev):

    -4.7857  -3.1685  -3.1685  -3.1682  -0.3088  -0.3088  -0.3088   1.6766
     2.7543   2.7543   2.7545   3.9934   3.9935   3.9935   5.1840   5.1840

          k = 0.2778 0.2778 0.3889 (  6585 PWs)   bands (ev):

    -4.4956  -3.6690  -3.0814  -3.0812  -0.5688  -0.5688   0.0866   1.0767
     2.8502   2.8504   3.5110   4.0852   4.0852   4.2284   4.8528   4.9547

          k = 0.2778 0.2778-0.5000 (  6580 PWs)   bands (ev):

    -4.1193  -4.1190  -3.0436  -3.0434  -0.6694  -0.6694   0.5455   0.5456
     2.8965   2.8967   4.0885   4.0885   4.2967   4.2967   4.5222   4.5225

          k = 0.2778 0.3889 0.3889 (  6578 PWs)   bands (ev):

    -4.2242  -3.4850  -3.4848  -3.1475  -0.6951  -0.3273  -0.3273   0.5148
     3.1435   3.5469   3.5470   4.3837   4.3843   4.3844   4.5663   5.0787

          k = 0.2778 0.3889-0.5000 (  6572 PWs)   bands (ev):

    -3.8799  -3.8796  -3.2937  -3.2935  -0.6082  -0.6082   0.0401   0.0402
     3.3931   3.3933   4.1342   4.1344   4.4746   4.4746   4.7860   4.7861

          k = 0.2778-0.5000-0.5000 (  6568 PWs)   bands (ev):

    -3.5916  -3.5916  -3.5916  -3.5912  -0.3586  -0.3584  -0.3584  -0.3583
     3.8016   3.8017   3.8017   3.8019   4.7858   4.7859   4.7860   4.7860

          k = 0.3889 0.3889 0.3889 (  6593 PWs)   bands (ev):

    -3.9834  -3.3959  -3.3959  -3.3956  -0.6526  -0.6526  -0.6526  -0.0057
     3.9487   3.9487   3.9490   4.5508   4.5509   4.5509   4.9266   4.9266

          k = 0.3889 0.3889-0.5000 (  6612 PWs)   bands (ev):

    -3.6940  -3.6938  -3.3572  -3.3570  -0.7733  -0.7732  -0.4087  -0.4086
     4.0779   4.0781   4.6433   4.6433   4.6471   4.6472   4.7411   4.7414

          k = 0.3889-0.5000-0.5000 (  6628 PWs)   bands (ev):

    -3.5020  -3.5020  -3.5020  -3.5016  -0.6995  -0.6993  -0.6993  -0.6993
     4.5091   4.5093   4.5093   4.5095   4.8236   4.8237   4.8238   4.8238

          k =-0.5000-0.5000-0.5000 (  6704 PWs)   bands (ev):

    -3.4631  -3.4631  -3.4631  -3.4627  -0.8249  -0.8248  -0.8248  -0.8248
     4.8390   4.8390   4.8390   4.8390   4.8390   4.8393   4.8393   4.8393

     highest occupied level (ev):     5.9503

!    total energy              =     -62.96760110 Ry
     estimated scf accuracy    <       0.00000074 Ry

     The total energy is the sum of the following terms:
     one-electron contribution =      18.47585526 Ry
     hartree contribution      =       4.44815962 Ry
     xc contribution           =     -19.16264816 Ry
     ewald contribution        =     -66.72896783 Ry

     convergence has been achieved in   5 iterations

     Forces acting on atoms (cartesian axes, Ry/au):

     atom    1 type  1   force =     0.00000000    0.00000000    0.00000000
     atom    2 type  1   force =     0.00000000    0.00000000    0.00000000
     atom    3 type  1   force =     0.00000000    0.00000000    0.00000000
     atom    4 type  1   force =     0.00000000    0.00000000    0.00000000
     atom    5 type  1   force =     0.00000139    0.00000139   -0.00000139
     atom    6 type  1   force =    -0.00000139   -0.00000139   -0.00000139
     atom    7 type  1   force =     0.00000139   -0.00000139    0.00000139
     atom    8 type  1   force =    -0.00000139    0.00000139    0.00000139

     Total force =     0.000005     Total SCF correction =     0.000219
     SCF correction compared to forces is large: reduce conv_thr to get better values


     Computing stress (Cartesian axis) and pressure

          total   stress  (Ry/bohr**3)                   (kbar)     P=        3.40
   0.00002311   0.00000000   0.00000000            3.40        0.00        0.00
   0.00000000   0.00002311   0.00000000            0.00        3.40        0.00
   0.00000000   0.00000000   0.00002311            0.00        0.00        3.40


     Writing output data file ./Si8.save/

     init_run     :     19.74s CPU     46.95s WALL (       1 calls)
     electrons    :    411.34s CPU    937.44s WALL (       1 calls)
     forces       :     19.30s CPU     47.72s WALL (       1 calls)
     stress       :      3.69s CPU     10.56s WALL (       1 calls)

     Called by init_run:
     wfcinit      :     19.71s CPU     46.92s WALL (       1 calls)
     potinit      :      0.01s CPU      0.01s WALL (       1 calls)
     hinit0       :      0.01s CPU      0.01s WALL (       1 calls)

     Called by electrons:
     c_bands      :    410.71s CPU    936.52s WALL (       6 calls)
     sum_band     :      0.59s CPU      0.79s WALL (       6 calls)
     v_of_rho     :      0.02s CPU      0.02s WALL (       6 calls)
     mix_rho      :      0.00s CPU      0.00s WALL (       6 calls)

     Called by c_bands:
     init_us_2    :      0.02s CPU      0.46s WALL (     525 calls)
     cegterg      :    387.97s CPU    884.23s WALL (     210 calls)

     Called by *egterg:
     cdiaghg      :     42.69s CPU     68.62s WALL (     802 calls)
     h_psi        :    139.46s CPU    349.83s WALL (     872 calls)
     g_psi        :      0.01s CPU      0.01s WALL (     627 calls)

     Called by h_psi:
     h_psi:calbec :     87.79s CPU    231.45s WALL (     872 calls)
     vloc_psi     :     38.86s CPU     49.00s WALL (     872 calls)
     add_vuspsi   :     12.81s CPU     68.94s WALL (     872 calls)

     General routines
     calbec       :    110.61s CPU    287.87s WALL (    1047 calls)
     fft          :      0.02s CPU      0.03s WALL (      68 calls)
     ffts         :      0.00s CPU      0.00s WALL (       6 calls)
     fftw         :     39.30s CPU     49.46s WALL (   25904 calls)

     Parallel routines
     fft_scatt_xy :      0.15s CPU      0.18s WALL (   25978 calls)
     fft_scatt_yz :     38.58s CPU     48.33s WALL (   25978 calls)

     PWSCF        :   7m34.53s CPU  17m23.48s WALL


   This run was terminated on:  22:47:17  24Feb2022            

=------------------------------------------------------------------------------=
   JOB DONE.
=------------------------------------------------------------------------------=
