
     Program PWSCF v.6.7MaX starts on 24Feb2022 at 21:55:53 

     This program is part of the open-source Quantum ESPRESSO suite
     for quantum simulation of materials; please cite
         "P. Giannozzi et al., J. Phys.:Condens. Matter 21 395502 (2009);
         "P. Giannozzi et al., J. Phys.:Condens. Matter 29 465901 (2017);
          URL http://www.quantum-espresso.org", 
     in publications or presentations arising from this work. More details at
     http://www.quantum-espresso.org/quote

     Parallel version (MPI), running on    40 processors

     MPI processes distributed on     1 nodes
     R & G space division:  proc/nbgrp/npool/nimage =      40
     Waiting for input...
     Reading input from standard input

     Current dimensions of program PWSCF are:
     Max number of different atomic species (ntypx) = 10
     Max number of k-points (npk) =  40000
     Max angular momentum in pseudopotentials (lmaxx) =  3

     Subspace diagonalization in iterative solution of the eigenvalue problem:
     a serial algorithm will be used

     Found symmetry operation: I + (  0.5000  0.5000  0.0000)
     This is a supercell, fractional translations are disabled
     Message from routine setup:
     using ibrav=0 with symmetry is DISCOURAGED, use correct ibrav instead

     Parallelization info
     --------------------
     sticks:   dense  smooth     PW     G-vecs:    dense   smooth      PW
     Min          42      42     11                 1312     1312     180
     Max          43      43     13                 1315     1315     183
     Sum        1693    1693    457                52515    52515    7249



     bravais-lattice index     =            0
     lattice parameter (alat)  =      10.3330  a.u.
     unit-cell volume          =    1103.2623 (a.u.)^3
     number of atoms/cell      =            8
     number of atomic types    =            1
     number of electrons       =        32.00
     number of Kohn-Sham states=           16
     kinetic-energy cutoff     =      50.0000  Ry
     charge density cutoff     =     200.0000  Ry
     scf convergence threshold =      1.0E-06
     mixing beta               =       0.7000
     number of iterations used =            8  plain     mixing
     Exchange-correlation=  SLA  PW   PBE  PBE
                           (   1   4   3   4   0   0   0)

     celldm(1)=  10.332996  celldm(2)=   0.000000  celldm(3)=   0.000000
     celldm(4)=   0.000000  celldm(5)=   0.000000  celldm(6)=   0.000000

     crystal axes: (cart. coord. in units of alat)
               a(1) = (   1.000000   0.000000   0.000000 )  
               a(2) = (   0.000000   1.000000   0.000000 )  
               a(3) = (   0.000000   0.000000   1.000000 )  

     reciprocal axes: (cart. coord. in units 2 pi/alat)
               b(1) = (  1.000000  0.000000  0.000000 )  
               b(2) = (  0.000000  1.000000  0.000000 )  
               b(3) = (  0.000000  0.000000  1.000000 )  


     PseudoPot. # 1 for Si read from file:
     ./Si.pbe-rrkj.UPF
     MD5 check sum: cf7ab5690cd9a85b22c4813f7e365554
     Pseudo is Norm-conserving, Zval =  4.0
     Generated by new atomic code, or converted to UPF format
     Using radial grid of  883 points,  3 beta functions with: 
                l(1) =   0
                l(2) =   0
                l(3) =   1

     atomic species   valence    mass     pseudopotential
        Si             4.00    28.08600     Si( 1.00)

     24 Sym. Ops. (no inversion) found



   Cartesian axes

     site n.     atom                  positions (alat units)
         1           Si  tau(   1) = (   0.5000000   0.5000000   0.0000000  )
         2           Si  tau(   2) = (   0.0000000   0.0000000   0.0000000  )
         3           Si  tau(   3) = (   0.5000000   0.0000000   0.5000000  )
         4           Si  tau(   4) = (   0.0000000   0.5000000   0.5000000  )
         5           Si  tau(   5) = (   0.7500000   0.7500000   0.2500000  )
         6           Si  tau(   6) = (   0.2500000   0.2500000   0.2500000  )
         7           Si  tau(   7) = (   0.7500000   0.2500000   0.7500000  )
         8           Si  tau(   8) = (   0.2500000   0.7500000   0.7500000  )

     number of k points=     1
                       cart. coord. in units 2pi/alat
        k(    1) = (   0.2500000   0.2500000   0.2500000), wk =   2.0000000

     Dense  grid:    52515 G-vectors     FFT dimensions: (  48,  48,  48)

     Estimated max dynamical RAM per process >       1.41 MB

     Estimated total dynamical RAM >      56.58 MB

     Initial potential from superposition of free atoms

     starting charge   31.99557, renormalised to   32.00000
     Starting wfcs are   32 randomized atomic wfcs

     total cpu time spent up to now is        1.4 secs

     Self-consistent Calculation

     iteration #  1     ecut=    50.00 Ry     beta= 0.70
     Davidson diagonalization with overlap
     ethr =  1.00E-02,  avg # of iterations =  2.0

     Threshold (ethr) on eigenvalues was too large:
     Diagonalizing with lowered threshold

     Davidson diagonalization with overlap
     ethr =  6.26E-04,  avg # of iterations =  2.0

     total cpu time spent up to now is        8.7 secs

     total energy              =     -62.91196399 Ry
     estimated scf accuracy    <       0.23205109 Ry

     iteration #  2     ecut=    50.00 Ry     beta= 0.70
     Davidson diagonalization with overlap
     ethr =  7.25E-04,  avg # of iterations =  1.0

     total cpu time spent up to now is       11.5 secs

     total energy              =     -62.91892419 Ry
     estimated scf accuracy    <       0.01367155 Ry

     iteration #  3     ecut=    50.00 Ry     beta= 0.70
     Davidson diagonalization with overlap
     ethr =  4.27E-05,  avg # of iterations =  2.0

     total cpu time spent up to now is       15.5 secs

     total energy              =     -62.92129430 Ry
     estimated scf accuracy    <       0.00040399 Ry

     iteration #  4     ecut=    50.00 Ry     beta= 0.70
     Davidson diagonalization with overlap
     ethr =  1.26E-06,  avg # of iterations =  5.0

     total cpu time spent up to now is       21.6 secs

     total energy              =     -62.92147533 Ry
     estimated scf accuracy    <       0.00004958 Ry

     iteration #  5     ecut=    50.00 Ry     beta= 0.70
     Davidson diagonalization with overlap
     ethr =  1.55E-07,  avg # of iterations =  5.0

     total cpu time spent up to now is       26.9 secs

     End of self-consistent calculation

          k = 0.2500 0.2500 0.2500 (  6595 PWs)   bands (ev):

    -4.9331  -3.0511  -3.0511  -3.0506  -0.2351  -0.2351  -0.2350   2.1871
     2.5898   2.5898   2.5901   3.8865   3.8867   3.8867   5.3036   5.3036

     highest occupied level (ev):     5.3036

!    total energy              =     -62.92149626 Ry
     estimated scf accuracy    <       0.00000007 Ry

     The total energy is the sum of the following terms:
     one-electron contribution =      18.47987018 Ry
     hartree contribution      =       4.52807387 Ry
     xc contribution           =     -19.20047249 Ry
     ewald contribution        =     -66.72896783 Ry

     convergence has been achieved in   5 iterations

     Forces acting on atoms (cartesian axes, Ry/au):

     atom    1 type  1   force =     0.00000000    0.00000000    0.00000000
     atom    2 type  1   force =     0.00000000    0.00000000    0.00000000
     atom    3 type  1   force =     0.00000000    0.00000000    0.00000000
     atom    4 type  1   force =     0.00000000    0.00000000    0.00000000
     atom    5 type  1   force =     0.00002105    0.00002105   -0.00002105
     atom    6 type  1   force =    -0.00002105   -0.00002105   -0.00002105
     atom    7 type  1   force =     0.00002105   -0.00002105    0.00002105
     atom    8 type  1   force =    -0.00002105    0.00002105    0.00002105

     Total force =     0.000073     Total SCF correction =     0.000175
     SCF correction compared to forces is large: reduce conv_thr to get better values


     Computing stress (Cartesian axis) and pressure

          total   stress  (Ry/bohr**3)                   (kbar)     P=        7.01
   0.00004765   0.00000000   0.00000000            7.01        0.00        0.00
   0.00000000   0.00004765   0.00000000            0.00        7.01        0.00
   0.00000000   0.00000000   0.00004765            0.00        0.00        7.01


     Writing output data file ./Si8.save/

     init_run     :      0.55s CPU      1.26s WALL (       1 calls)
     electrons    :     10.81s CPU     25.45s WALL (       1 calls)
     forces       :      0.61s CPU      1.30s WALL (       1 calls)
     stress       :      0.18s CPU      0.58s WALL (       1 calls)

     Called by init_run:
     wfcinit      :      0.52s CPU      1.20s WALL (       1 calls)
     potinit      :      0.01s CPU      0.01s WALL (       1 calls)
     hinit0       :      0.01s CPU      0.02s WALL (       1 calls)

     Called by electrons:
     c_bands      :     10.25s CPU     24.68s WALL (       6 calls)
     sum_band     :      0.47s CPU      0.64s WALL (       6 calls)
     v_of_rho     :      0.02s CPU      0.02s WALL (       6 calls)
     mix_rho      :      0.00s CPU      0.00s WALL (       6 calls)

     Called by c_bands:
     init_us_2    :      0.00s CPU      0.00s WALL (      13 calls)
     cegterg      :      9.94s CPU     23.73s WALL (       6 calls)

     Called by *egterg:
     cdiaghg      :      1.09s CPU      1.81s WALL (      22 calls)
     h_psi        :      3.34s CPU      9.34s WALL (      24 calls)
     g_psi        :      0.00s CPU      0.00s WALL (      17 calls)

     Called by h_psi:
     h_psi:calbec :      2.23s CPU      6.57s WALL (      24 calls)
     vloc_psi     :      0.74s CPU      0.95s WALL (      24 calls)
     add_vuspsi   :      0.37s CPU      1.82s WALL (      24 calls)

     General routines
     calbec       :      2.89s CPU      8.11s WALL (      29 calls)
     fft          :      0.03s CPU      0.04s WALL (      68 calls)
     ffts         :      0.00s CPU      0.00s WALL (       6 calls)
     fftw         :      1.20s CPU      1.58s WALL (     710 calls)

     Parallel routines
     fft_scatt_xy :      0.00s CPU      0.01s WALL (     784 calls)
     fft_scatt_yz :      1.21s CPU      1.51s WALL (     784 calls)

     PWSCF        :     12.27s CPU     28.82s WALL


   This run was terminated on:  21:56:21  24Feb2022            

=------------------------------------------------------------------------------=
   JOB DONE.
=------------------------------------------------------------------------------=
