
     Program PWSCF v.6.7MaX starts on 24Feb2022 at 21:56:33 

     This program is part of the open-source Quantum ESPRESSO suite
     for quantum simulation of materials; please cite
         "P. Giannozzi et al., J. Phys.:Condens. Matter 21 395502 (2009);
         "P. Giannozzi et al., J. Phys.:Condens. Matter 29 465901 (2017);
          URL http://www.quantum-espresso.org", 
     in publications or presentations arising from this work. More details at
     http://www.quantum-espresso.org/quote

     Parallel version (MPI), running on    40 processors

     MPI processes distributed on     1 nodes
     R & G space division:  proc/nbgrp/npool/nimage =      40
     Waiting for input...
     Reading input from standard input

     Current dimensions of program PWSCF are:
     Max number of different atomic species (ntypx) = 10
     Max number of k-points (npk) =  40000
     Max angular momentum in pseudopotentials (lmaxx) =  3

     Subspace diagonalization in iterative solution of the eigenvalue problem:
     a serial algorithm will be used

     Found symmetry operation: I + (  0.5000  0.5000  0.0000)
     This is a supercell, fractional translations are disabled
     Message from routine setup:
     using ibrav=0 with symmetry is DISCOURAGED, use correct ibrav instead

     Parallelization info
     --------------------
     sticks:   dense  smooth     PW     G-vecs:    dense   smooth      PW
     Min          25      25      7                  609      609      97
     Max          26      26      8                  612      612     102
     Sum        1009    1009    301                24405    24405    3959



     bravais-lattice index     =            0
     lattice parameter (alat)  =      10.3330  a.u.
     unit-cell volume          =    1103.2623 (a.u.)^3
     number of atoms/cell      =            8
     number of atomic types    =            1
     number of electrons       =        32.00
     number of Kohn-Sham states=           16
     kinetic-energy cutoff     =      30.0000  Ry
     charge density cutoff     =     120.0000  Ry
     scf convergence threshold =      1.0E-06
     mixing beta               =       0.7000
     number of iterations used =            8  plain     mixing
     Exchange-correlation=  SLA  PW   PBE  PBE
                           (   1   4   3   4   0   0   0)

     celldm(1)=  10.332996  celldm(2)=   0.000000  celldm(3)=   0.000000
     celldm(4)=   0.000000  celldm(5)=   0.000000  celldm(6)=   0.000000

     crystal axes: (cart. coord. in units of alat)
               a(1) = (   1.000000   0.000000   0.000000 )  
               a(2) = (   0.000000   1.000000   0.000000 )  
               a(3) = (   0.000000   0.000000   1.000000 )  

     reciprocal axes: (cart. coord. in units 2 pi/alat)
               b(1) = (  1.000000  0.000000  0.000000 )  
               b(2) = (  0.000000  1.000000  0.000000 )  
               b(3) = (  0.000000  0.000000  1.000000 )  


     PseudoPot. # 1 for Si read from file:
     ./Si.pbe-rrkj.UPF
     MD5 check sum: cf7ab5690cd9a85b22c4813f7e365554
     Pseudo is Norm-conserving, Zval =  4.0
     Generated by new atomic code, or converted to UPF format
     Using radial grid of  883 points,  3 beta functions with: 
                l(1) =   0
                l(2) =   0
                l(3) =   1

     atomic species   valence    mass     pseudopotential
        Si             4.00    28.08600     Si( 1.00)

     24 Sym. Ops. (no inversion) found



   Cartesian axes

     site n.     atom                  positions (alat units)
         1           Si  tau(   1) = (   0.5000000   0.5000000   0.0000000  )
         2           Si  tau(   2) = (   0.0000000   0.0000000   0.0000000  )
         3           Si  tau(   3) = (   0.5000000   0.0000000   0.5000000  )
         4           Si  tau(   4) = (   0.0000000   0.5000000   0.5000000  )
         5           Si  tau(   5) = (   0.7500000   0.7500000   0.2500000  )
         6           Si  tau(   6) = (   0.2500000   0.2500000   0.2500000  )
         7           Si  tau(   7) = (   0.7500000   0.2500000   0.7500000  )
         8           Si  tau(   8) = (   0.2500000   0.7500000   0.7500000  )

     number of k points=    10
                       cart. coord. in units 2pi/alat
        k(    1) = (   0.1000000   0.1000000   0.1000000), wk =   0.1280000
        k(    2) = (   0.1000000   0.1000000   0.3000000), wk =   0.3840000
        k(    3) = (   0.1000000   0.1000000  -0.5000000), wk =   0.1920000
        k(    4) = (   0.1000000   0.3000000   0.3000000), wk =   0.3840000
        k(    5) = (   0.1000000   0.3000000  -0.5000000), wk =   0.3840000
        k(    6) = (   0.1000000  -0.5000000  -0.5000000), wk =   0.0960000
        k(    7) = (   0.3000000   0.3000000   0.3000000), wk =   0.1280000
        k(    8) = (   0.3000000   0.3000000  -0.5000000), wk =   0.1920000
        k(    9) = (   0.3000000  -0.5000000  -0.5000000), wk =   0.0960000
        k(   10) = (  -0.5000000  -0.5000000  -0.5000000), wk =   0.0160000

     Dense  grid:    24405 G-vectors     FFT dimensions: (  40,  40,  40)

     Estimated max dynamical RAM per process >       0.90 MB

     Estimated total dynamical RAM >      35.83 MB

     Initial potential from superposition of free atoms

     starting charge   31.99557, renormalised to   32.00000
     Starting wfcs are   32 randomized atomic wfcs

     total cpu time spent up to now is       22.3 secs

     Self-consistent Calculation

     iteration #  1     ecut=    30.00 Ry     beta= 0.70
     Davidson diagonalization with overlap
     ethr =  1.00E-02,  avg # of iterations =  2.0

     Threshold (ethr) on eigenvalues was too large:
     Diagonalizing with lowered threshold

     Davidson diagonalization with overlap
     ethr =  5.70E-04,  avg # of iterations =  2.0

     total cpu time spent up to now is      108.1 secs

     total energy              =     -62.95760678 Ry
     estimated scf accuracy    <       0.21482648 Ry

     iteration #  2     ecut=    30.00 Ry     beta= 0.70
     Davidson diagonalization with overlap
     ethr =  6.71E-04,  avg # of iterations =  1.0

     total cpu time spent up to now is      139.7 secs

     total energy              =     -62.96450629 Ry
     estimated scf accuracy    <       0.01233588 Ry

     iteration #  3     ecut=    30.00 Ry     beta= 0.70
     Davidson diagonalization with overlap
     ethr =  3.85E-05,  avg # of iterations =  2.3

     total cpu time spent up to now is      189.9 secs

     total energy              =     -62.96688068 Ry
     estimated scf accuracy    <       0.00036586 Ry

     iteration #  4     ecut=    30.00 Ry     beta= 0.70
     Davidson diagonalization with overlap
     ethr =  1.14E-06,  avg # of iterations =  4.9

     total cpu time spent up to now is      258.0 secs

     total energy              =     -62.96715565 Ry
     estimated scf accuracy    <       0.00002058 Ry

     iteration #  5     ecut=    30.00 Ry     beta= 0.70
     Davidson diagonalization with overlap
     ethr =  6.43E-08,  avg # of iterations =  4.3

     total cpu time spent up to now is      319.0 secs

     End of self-consistent calculation

          k = 0.1000 0.1000 0.1000 (  3044 PWs)   bands (ev):

    -5.6187  -2.3702  -2.3702  -2.3696  -0.8975  -0.8975  -0.8971   2.8116
     2.8116   2.8118   3.3309   3.3312   3.3312   4.8887   5.8222   5.8222

          k = 0.1000 0.1000 0.3000 (  3069 PWs)   bands (ev):

    -5.2785  -3.6248  -2.2468  -2.2464  -0.9172  -0.9170   0.6700   2.1905
     2.1906   3.1032   3.1033   3.2270   3.6006   3.6344   5.0294   5.1926

          k = 0.1000 0.1000-0.5000 (  3048 PWs)   bands (ev):

    -4.6074  -4.6068  -2.1567  -2.1562  -0.9485  -0.9482   1.9790   1.9792
     2.1974   2.1976   2.8529   2.8529   4.0659   4.0663   4.2210   4.2216

          k = 0.1000 0.3000 0.3000 (  3062 PWs)   bands (ev):

    -4.9486  -3.3736  -3.3732  -2.4813  -0.7795   0.2298   0.2300   1.8785
     2.4328   2.6699   2.6699   3.6587   3.6592   3.8509   4.2889   5.5194

          k = 0.1000 0.3000-0.5000 (  3052 PWs)   bands (ev):

    -4.3025  -4.3019  -2.9353  -2.9348  -0.3594  -0.3592   1.3078   1.3080
     2.1235   2.1238   3.4084   3.4087   3.8387   3.8387   4.6982   4.6984

          k = 0.1000-0.5000-0.5000 (  3092 PWs)   bands (ev):

    -3.7200  -3.7198  -3.7198  -3.7189   0.3937   0.3938   0.3938   0.3941
     2.6418   2.6422   2.6422   2.6424   4.7257   4.7260   4.7264   4.7264

          k = 0.3000 0.3000 0.3000 (  3067 PWs)   bands (ev):

    -4.6354  -3.2297  -3.2297  -3.2290  -0.3675  -0.3675  -0.3675   1.3051
     2.9505   2.9505   2.9510   4.1052   4.1055   4.1055   5.1193   5.1193

          k = 0.3000 0.3000-0.5000 (  3060 PWs)   bands (ev):

    -4.0357  -4.0351  -3.1230  -3.1225  -0.6879  -0.6878   0.3311   0.3314
     3.1179   3.1184   4.2224   4.2225   4.3636   4.3637   4.5685   4.5691

          k = 0.3000-0.5000-0.5000 (  3068 PWs)   bands (ev):

    -3.5728  -3.5727  -3.5727  -3.5717  -0.4409  -0.4406  -0.4406  -0.4404
     3.9544   3.9548   3.9548   3.9552   4.7935   4.7938   4.7942   4.7942

          k =-0.5000-0.5000-0.5000 (  3112 PWs)   bands (ev):

    -3.4637  -3.4637  -3.4637  -3.4627  -0.8252  -0.8250  -0.8250  -0.8250
     4.8382   4.8382   4.8384   4.8384   4.8384   4.8391   4.8391   4.8391

     highest occupied level (ev):     5.8222

!    total energy              =     -62.96716659 Ry
     estimated scf accuracy    <       0.00000014 Ry

     The total energy is the sum of the following terms:
     one-electron contribution =      18.47575791 Ry
     hartree contribution      =       4.44950456 Ry
     xc contribution           =     -19.16346123 Ry
     ewald contribution        =     -66.72896783 Ry

     convergence has been achieved in   5 iterations

     Forces acting on atoms (cartesian axes, Ry/au):

     atom    1 type  1   force =     0.00000000    0.00000000    0.00000000
     atom    2 type  1   force =     0.00000000    0.00000000    0.00000000
     atom    3 type  1   force =     0.00000000    0.00000000    0.00000000
     atom    4 type  1   force =     0.00000000    0.00000000    0.00000000
     atom    5 type  1   force =     0.00001634    0.00001634   -0.00001634
     atom    6 type  1   force =    -0.00001634   -0.00001634   -0.00001634
     atom    7 type  1   force =     0.00001634   -0.00001634    0.00001634
     atom    8 type  1   force =    -0.00001634    0.00001634    0.00001634

     Total force =     0.000057     Total SCF correction =     0.000429
     SCF correction compared to forces is large: reduce conv_thr to get better values


     Computing stress (Cartesian axis) and pressure

          total   stress  (Ry/bohr**3)                   (kbar)     P=        3.45
   0.00002348   0.00000000   0.00000000            3.45        0.00        0.00
   0.00000000   0.00002348   0.00000000            0.00        3.45        0.00
   0.00000000   0.00000000   0.00002348            0.00        0.00        3.45


     Writing output data file ./Si8.save/

     init_run     :      8.97s CPU     21.92s WALL (       1 calls)
     electrons    :    134.95s CPU    296.79s WALL (       1 calls)
     forces       :      9.23s CPU     23.60s WALL (       1 calls)
     stress       :      2.71s CPU      5.81s WALL (       1 calls)

     Called by init_run:
     wfcinit      :      8.96s CPU     21.90s WALL (       1 calls)
     potinit      :      0.00s CPU      0.00s WALL (       1 calls)
     hinit0       :      0.00s CPU      0.00s WALL (       1 calls)

     Called by electrons:
     c_bands      :    134.38s CPU    296.05s WALL (       6 calls)
     sum_band     :      0.44s CPU      0.60s WALL (       6 calls)
     v_of_rho     :      0.01s CPU      0.01s WALL (       6 calls)
     mix_rho      :      0.00s CPU      0.00s WALL (       6 calls)

     Called by c_bands:
     init_us_2    :      0.00s CPU      0.03s WALL (     150 calls)
     cegterg      :    126.31s CPU    282.82s WALL (      60 calls)

     Called by *egterg:
     cdiaghg      :     15.50s CPU     23.78s WALL (     215 calls)
     h_psi        :     48.58s CPU    133.70s WALL (     235 calls)
     g_psi        :      0.00s CPU      0.00s WALL (     165 calls)

     Called by h_psi:
     h_psi:calbec :     27.87s CPU     82.07s WALL (     235 calls)
     vloc_psi     :     12.52s CPU     13.32s WALL (     235 calls)
     add_vuspsi   :      8.19s CPU     38.26s WALL (     235 calls)

     General routines
     calbec       :     39.76s CPU    111.12s WALL (     285 calls)
     fft          :      0.04s CPU      0.04s WALL (      68 calls)
     ffts         :      0.00s CPU      0.00s WALL (       6 calls)
     fftw         :     12.93s CPU     13.88s WALL (    7224 calls)

     Parallel routines
     fft_scatt_xy :      0.02s CPU      0.02s WALL (    7298 calls)
     fft_scatt_yz :     12.85s CPU     13.75s WALL (    7298 calls)

     PWSCF        :   2m36.10s CPU   5m48.61s WALL


   This run was terminated on:  22: 2:21  24Feb2022            

=------------------------------------------------------------------------------=
   JOB DONE.
=------------------------------------------------------------------------------=
