
     Program PWSCF v.6.7MaX starts on 24Feb2022 at 22:31:30 

     This program is part of the open-source Quantum ESPRESSO suite
     for quantum simulation of materials; please cite
         "P. Giannozzi et al., J. Phys.:Condens. Matter 21 395502 (2009);
         "P. Giannozzi et al., J. Phys.:Condens. Matter 29 465901 (2017);
          URL http://www.quantum-espresso.org", 
     in publications or presentations arising from this work. More details at
     http://www.quantum-espresso.org/quote

     Parallel version (MPI), running on    40 processors

     MPI processes distributed on     1 nodes
     R & G space division:  proc/nbgrp/npool/nimage =      40
     Waiting for input...
     Reading input from standard input

     Current dimensions of program PWSCF are:
     Max number of different atomic species (ntypx) = 10
     Max number of k-points (npk) =  40000
     Max angular momentum in pseudopotentials (lmaxx) =  3

     Subspace diagonalization in iterative solution of the eigenvalue problem:
     a serial algorithm will be used

     Found symmetry operation: I + (  0.5000  0.5000  0.0000)
     This is a supercell, fractional translations are disabled
     Message from routine setup:
     using ibrav=0 with symmetry is DISCOURAGED, use correct ibrav instead

     Parallelization info
     --------------------
     sticks:   dense  smooth     PW     G-vecs:    dense   smooth      PW
     Min          68      68     19                 2658     2658     391
     Max          69      69     20                 2662     2662     397
     Sum        2725    2725    761               106431   106431   15791



     bravais-lattice index     =            0
     lattice parameter (alat)  =      10.3330  a.u.
     unit-cell volume          =    1103.2623 (a.u.)^3
     number of atoms/cell      =            8
     number of atomic types    =            1
     number of electrons       =        32.00
     number of Kohn-Sham states=           16
     kinetic-energy cutoff     =      80.0000  Ry
     charge density cutoff     =     320.0000  Ry
     scf convergence threshold =      1.0E-06
     mixing beta               =       0.7000
     number of iterations used =            8  plain     mixing
     Exchange-correlation=  SLA  PW   PBE  PBE
                           (   1   4   3   4   0   0   0)

     celldm(1)=  10.332996  celldm(2)=   0.000000  celldm(3)=   0.000000
     celldm(4)=   0.000000  celldm(5)=   0.000000  celldm(6)=   0.000000

     crystal axes: (cart. coord. in units of alat)
               a(1) = (   1.000000   0.000000   0.000000 )  
               a(2) = (   0.000000   1.000000   0.000000 )  
               a(3) = (   0.000000   0.000000   1.000000 )  

     reciprocal axes: (cart. coord. in units 2 pi/alat)
               b(1) = (  1.000000  0.000000  0.000000 )  
               b(2) = (  0.000000  1.000000  0.000000 )  
               b(3) = (  0.000000  0.000000  1.000000 )  


     PseudoPot. # 1 for Si read from file:
     ./Si.pbe-rrkj.UPF
     MD5 check sum: cf7ab5690cd9a85b22c4813f7e365554
     Pseudo is Norm-conserving, Zval =  4.0
     Generated by new atomic code, or converted to UPF format
     Using radial grid of  883 points,  3 beta functions with: 
                l(1) =   0
                l(2) =   0
                l(3) =   1

     atomic species   valence    mass     pseudopotential
        Si             4.00    28.08600     Si( 1.00)

     24 Sym. Ops. (no inversion) found



   Cartesian axes

     site n.     atom                  positions (alat units)
         1           Si  tau(   1) = (   0.5000000   0.5000000   0.0000000  )
         2           Si  tau(   2) = (   0.0000000   0.0000000   0.0000000  )
         3           Si  tau(   3) = (   0.5000000   0.0000000   0.5000000  )
         4           Si  tau(   4) = (   0.0000000   0.5000000   0.5000000  )
         5           Si  tau(   5) = (   0.7500000   0.7500000   0.2500000  )
         6           Si  tau(   6) = (   0.2500000   0.2500000   0.2500000  )
         7           Si  tau(   7) = (   0.7500000   0.2500000   0.7500000  )
         8           Si  tau(   8) = (   0.2500000   0.7500000   0.7500000  )

     number of k points=    10
                       cart. coord. in units 2pi/alat
        k(    1) = (   0.1000000   0.1000000   0.1000000), wk =   0.1280000
        k(    2) = (   0.1000000   0.1000000   0.3000000), wk =   0.3840000
        k(    3) = (   0.1000000   0.1000000  -0.5000000), wk =   0.1920000
        k(    4) = (   0.1000000   0.3000000   0.3000000), wk =   0.3840000
        k(    5) = (   0.1000000   0.3000000  -0.5000000), wk =   0.3840000
        k(    6) = (   0.1000000  -0.5000000  -0.5000000), wk =   0.0960000
        k(    7) = (   0.3000000   0.3000000   0.3000000), wk =   0.1280000
        k(    8) = (   0.3000000   0.3000000  -0.5000000), wk =   0.1920000
        k(    9) = (   0.3000000  -0.5000000  -0.5000000), wk =   0.0960000
        k(   10) = (  -0.5000000  -0.5000000  -0.5000000), wk =   0.0160000

     Dense  grid:   106431 G-vectors     FFT dimensions: (  60,  60,  60)

     Estimated max dynamical RAM per process >       3.33 MB

     Estimated total dynamical RAM >     133.07 MB

     Initial potential from superposition of free atoms

     starting charge   31.99557, renormalised to   32.00000
     Starting wfcs are   32 randomized atomic wfcs

     total cpu time spent up to now is       21.6 secs

     Self-consistent Calculation

     iteration #  1     ecut=    80.00 Ry     beta= 0.70
     Davidson diagonalization with overlap
     ethr =  1.00E-02,  avg # of iterations =  2.0

     Threshold (ethr) on eigenvalues was too large:
     Diagonalizing with lowered threshold

     Davidson diagonalization with overlap
     ethr =  5.69E-04,  avg # of iterations =  2.0

     total cpu time spent up to now is      148.5 secs

     total energy              =     -62.95805368 Ry
     estimated scf accuracy    <       0.21450785 Ry

     iteration #  2     ecut=    80.00 Ry     beta= 0.70
     Davidson diagonalization with overlap
     ethr =  6.70E-04,  avg # of iterations =  1.0

     total cpu time spent up to now is      188.1 secs

     total energy              =     -62.96490073 Ry
     estimated scf accuracy    <       0.01240354 Ry

     iteration #  3     ecut=    80.00 Ry     beta= 0.70
     Davidson diagonalization with overlap
     ethr =  3.88E-05,  avg # of iterations =  2.2

     total cpu time spent up to now is      249.1 secs

     total energy              =     -62.96722720 Ry
     estimated scf accuracy    <       0.00035575 Ry

     iteration #  4     ecut=    80.00 Ry     beta= 0.70
     Davidson diagonalization with overlap
     ethr =  1.11E-06,  avg # of iterations =  4.9

     total cpu time spent up to now is      359.9 secs

     total energy              =     -62.96750963 Ry
     estimated scf accuracy    <       0.00001347 Ry

     iteration #  5     ecut=    80.00 Ry     beta= 0.70
     Davidson diagonalization with overlap
     ethr =  4.21E-08,  avg # of iterations =  5.0

     total cpu time spent up to now is      461.9 secs

     End of self-consistent calculation

          k = 0.1000 0.1000 0.1000 ( 13313 PWs)   bands (ev):

    -5.6181  -2.3694  -2.3694  -2.3693  -0.8967  -0.8967  -0.8967   2.8121
     2.8121   2.8121   3.3316   3.3316   3.3316   4.8894   5.8229   5.8229

          k = 0.1000 0.1000 0.3000 ( 13340 PWs)   bands (ev):

    -5.2779  -3.6242  -2.2460  -2.2459  -0.9164  -0.9164   0.6708   2.1909
     2.1910   3.1037   3.1037   3.2275   3.6013   3.6349   5.0300   5.1933

          k = 0.1000 0.1000-0.5000 ( 13340 PWs)   bands (ev):

    -4.6065  -4.6065  -2.1558  -2.1558  -0.9477  -0.9477   1.9795   1.9795
     2.1982   2.1982   2.8534   2.8534   4.0667   4.0667   4.2219   4.2219

          k = 0.1000 0.3000 0.3000 ( 13318 PWs)   bands (ev):

    -4.9480  -3.3728  -3.3728  -2.4806  -0.7789   0.2306   0.2306   1.8789
     2.4335   2.6704   2.6704   3.6595   3.6595   3.8514   4.2895   5.5201

          k = 0.1000 0.3000-0.5000 ( 13356 PWs)   bands (ev):

    -4.3016  -4.3016  -2.9344  -2.9344  -0.3586  -0.3586   1.3086   1.3086
     2.1240   2.1241   3.4091   3.4091   3.8392   3.8393   4.6989   4.6989

          k = 0.1000-0.5000-0.5000 ( 13364 PWs)   bands (ev):

    -3.7190  -3.7190  -3.7190  -3.7189   0.3945   0.3945   0.3945   0.3945
     2.6426   2.6426   2.6426   2.6427   4.7268   4.7268   4.7268   4.7268

          k = 0.3000 0.3000 0.3000 ( 13340 PWs)   bands (ev):

    -4.6348  -3.2288  -3.2288  -3.2288  -0.3670  -0.3670  -0.3670   1.3057
     2.9512   2.9512   2.9512   4.1059   4.1060   4.1060   5.1199   5.1199

          k = 0.3000 0.3000-0.5000 ( 13290 PWs)   bands (ev):

    -4.0348  -4.0347  -3.1221  -3.1221  -0.6873  -0.6873   0.3318   0.3318
     3.1187   3.1187   4.2230   4.2230   4.3642   4.3643   4.5694   4.5695

          k = 0.3000-0.5000-0.5000 ( 13316 PWs)   bands (ev):

    -3.5719  -3.5719  -3.5719  -3.5718  -0.4401  -0.4401  -0.4401  -0.4401
     3.9554   3.9554   3.9554   3.9554   4.7946   4.7946   4.7946   4.7946

          k =-0.5000-0.5000-0.5000 ( 13264 PWs)   bands (ev):

    -3.4628  -3.4628  -3.4628  -3.4627  -0.8246  -0.8246  -0.8246  -0.8246
     4.8393   4.8393   4.8393   4.8393   4.8393   4.8393   4.8393   4.8393

     highest occupied level (ev):     5.8229

!    total energy              =     -62.96751998 Ry
     estimated scf accuracy    <       0.00000071 Ry

     The total energy is the sum of the following terms:
     one-electron contribution =      18.47571218 Ry
     hartree contribution      =       4.44867395 Ry
     xc contribution           =     -19.16293830 Ry
     ewald contribution        =     -66.72896782 Ry

     convergence has been achieved in   5 iterations

     Forces acting on atoms (cartesian axes, Ry/au):

     atom    1 type  1   force =     0.00000000    0.00000000    0.00000000
     atom    2 type  1   force =     0.00000000    0.00000000    0.00000000
     atom    3 type  1   force =     0.00000000    0.00000000    0.00000000
     atom    4 type  1   force =     0.00000000    0.00000000    0.00000000
     atom    5 type  1   force =    -0.00000260   -0.00000260    0.00000260
     atom    6 type  1   force =     0.00000260    0.00000260    0.00000260
     atom    7 type  1   force =    -0.00000260    0.00000260   -0.00000260
     atom    8 type  1   force =     0.00000260   -0.00000260   -0.00000260

     Total force =     0.000009     Total SCF correction =     0.000059
     SCF correction compared to forces is large: reduce conv_thr to get better values


     Computing stress (Cartesian axis) and pressure

          total   stress  (Ry/bohr**3)                   (kbar)     P=        3.37
   0.00002292   0.00000000   0.00000000            3.37        0.00        0.00
   0.00000000   0.00002292   0.00000000            0.00        3.37        0.00
   0.00000000   0.00000000   0.00002292            0.00        0.00        3.37


     Writing output data file ./Si8.save/

     init_run     :      8.58s CPU     21.26s WALL (       1 calls)
     electrons    :    177.00s CPU    440.30s WALL (       1 calls)
     forces       :      7.02s CPU     20.87s WALL (       1 calls)
     stress       :      1.36s CPU      4.91s WALL (       1 calls)

     Called by init_run:
     wfcinit      :      8.53s CPU     21.21s WALL (       1 calls)
     potinit      :      0.01s CPU      0.01s WALL (       1 calls)
     hinit0       :      0.01s CPU      0.01s WALL (       1 calls)

     Called by electrons:
     c_bands      :    176.22s CPU    439.26s WALL (       6 calls)
     sum_band     :      0.70s CPU      0.88s WALL (       6 calls)
     v_of_rho     :      0.03s CPU      0.03s WALL (       6 calls)
     mix_rho      :      0.00s CPU      0.00s WALL (       6 calls)

     Called by c_bands:
     init_us_2    :      0.01s CPU      0.04s WALL (     150 calls)
     cegterg      :    167.01s CPU    421.94s WALL (      60 calls)

     Called by *egterg:
     cdiaghg      :     16.62s CPU     29.38s WALL (     221 calls)
     h_psi        :     57.23s CPU    172.18s WALL (     241 calls)
     g_psi        :      0.00s CPU      0.00s WALL (     171 calls)

     Called by h_psi:
     h_psi:calbec :     33.15s CPU    105.37s WALL (     241 calls)
     vloc_psi     :     13.57s CPU     17.38s WALL (     241 calls)
     add_vuspsi   :     10.49s CPU     49.34s WALL (     241 calls)

     General routines
     calbec       :     41.28s CPU    130.32s WALL (     291 calls)
     fft          :      0.04s CPU      0.04s WALL (      68 calls)
     ffts         :      0.00s CPU      0.00s WALL (       6 calls)
     fftw         :     14.21s CPU     18.15s WALL (    7394 calls)

     Parallel routines
     fft_scatt_xy :      0.06s CPU      0.08s WALL (    7468 calls)
     fft_scatt_yz :     13.86s CPU     16.74s WALL (    7468 calls)

     PWSCF        :   3m14.12s CPU   8m 7.93s WALL


   This run was terminated on:  22:39:38  24Feb2022            

=------------------------------------------------------------------------------=
   JOB DONE.
=------------------------------------------------------------------------------=
