
     Program PWSCF v.6.7MaX starts on 24Feb2022 at 22: 0:17 

     This program is part of the open-source Quantum ESPRESSO suite
     for quantum simulation of materials; please cite
         "P. Giannozzi et al., J. Phys.:Condens. Matter 21 395502 (2009);
         "P. Giannozzi et al., J. Phys.:Condens. Matter 29 465901 (2017);
          URL http://www.quantum-espresso.org", 
     in publications or presentations arising from this work. More details at
     http://www.quantum-espresso.org/quote

     Parallel version (MPI), running on    40 processors

     MPI processes distributed on     1 nodes
     R & G space division:  proc/nbgrp/npool/nimage =      40
     Waiting for input...
     Reading input from standard input

     Current dimensions of program PWSCF are:
     Max number of different atomic species (ntypx) = 10
     Max number of k-points (npk) =  40000
     Max angular momentum in pseudopotentials (lmaxx) =  3

     Subspace diagonalization in iterative solution of the eigenvalue problem:
     a serial algorithm will be used

     Found symmetry operation: I + (  0.5000  0.5000  0.0000)
     This is a supercell, fractional translations are disabled
     Message from routine setup:
     using ibrav=0 with symmetry is DISCOURAGED, use correct ibrav instead

     Parallelization info
     --------------------
     sticks:   dense  smooth     PW     G-vecs:    dense   smooth      PW
     Min          42      42     12                 1312     1312     204
     Max          43      43     13                 1315     1315     209
     Sum        1693    1693    489                52515    52515    8217



     bravais-lattice index     =            0
     lattice parameter (alat)  =      10.3330  a.u.
     unit-cell volume          =    1103.2623 (a.u.)^3
     number of atoms/cell      =            8
     number of atomic types    =            1
     number of electrons       =        32.00
     number of Kohn-Sham states=           16
     kinetic-energy cutoff     =      50.0000  Ry
     charge density cutoff     =     200.0000  Ry
     scf convergence threshold =      1.0E-06
     mixing beta               =       0.7000
     number of iterations used =            8  plain     mixing
     Exchange-correlation=  SLA  PW   PBE  PBE
                           (   1   4   3   4   0   0   0)

     celldm(1)=  10.332996  celldm(2)=   0.000000  celldm(3)=   0.000000
     celldm(4)=   0.000000  celldm(5)=   0.000000  celldm(6)=   0.000000

     crystal axes: (cart. coord. in units of alat)
               a(1) = (   1.000000   0.000000   0.000000 )  
               a(2) = (   0.000000   1.000000   0.000000 )  
               a(3) = (   0.000000   0.000000   1.000000 )  

     reciprocal axes: (cart. coord. in units 2 pi/alat)
               b(1) = (  1.000000  0.000000  0.000000 )  
               b(2) = (  0.000000  1.000000  0.000000 )  
               b(3) = (  0.000000  0.000000  1.000000 )  


     PseudoPot. # 1 for Si read from file:
     ./Si.pbe-rrkj.UPF
     MD5 check sum: cf7ab5690cd9a85b22c4813f7e365554
     Pseudo is Norm-conserving, Zval =  4.0
     Generated by new atomic code, or converted to UPF format
     Using radial grid of  883 points,  3 beta functions with: 
                l(1) =   0
                l(2) =   0
                l(3) =   1

     atomic species   valence    mass     pseudopotential
        Si             4.00    28.08600     Si( 1.00)

     24 Sym. Ops. (no inversion) found



   Cartesian axes

     site n.     atom                  positions (alat units)
         1           Si  tau(   1) = (   0.5000000   0.5000000   0.0000000  )
         2           Si  tau(   2) = (   0.0000000   0.0000000   0.0000000  )
         3           Si  tau(   3) = (   0.5000000   0.0000000   0.5000000  )
         4           Si  tau(   4) = (   0.0000000   0.5000000   0.5000000  )
         5           Si  tau(   5) = (   0.7500000   0.7500000   0.2500000  )
         6           Si  tau(   6) = (   0.2500000   0.2500000   0.2500000  )
         7           Si  tau(   7) = (   0.7500000   0.2500000   0.7500000  )
         8           Si  tau(   8) = (   0.2500000   0.7500000   0.7500000  )

     number of k points=    10
                       cart. coord. in units 2pi/alat
        k(    1) = (   0.1000000   0.1000000   0.1000000), wk =   0.1280000
        k(    2) = (   0.1000000   0.1000000   0.3000000), wk =   0.3840000
        k(    3) = (   0.1000000   0.1000000  -0.5000000), wk =   0.1920000
        k(    4) = (   0.1000000   0.3000000   0.3000000), wk =   0.3840000
        k(    5) = (   0.1000000   0.3000000  -0.5000000), wk =   0.3840000
        k(    6) = (   0.1000000  -0.5000000  -0.5000000), wk =   0.0960000
        k(    7) = (   0.3000000   0.3000000   0.3000000), wk =   0.1280000
        k(    8) = (   0.3000000   0.3000000  -0.5000000), wk =   0.1920000
        k(    9) = (   0.3000000  -0.5000000  -0.5000000), wk =   0.0960000
        k(   10) = (  -0.5000000  -0.5000000  -0.5000000), wk =   0.0160000

     Dense  grid:    52515 G-vectors     FFT dimensions: (  48,  48,  48)

     Estimated max dynamical RAM per process >       1.81 MB

     Estimated total dynamical RAM >      72.59 MB

     Initial potential from superposition of free atoms

     starting charge   31.99557, renormalised to   32.00000
     Starting wfcs are   32 randomized atomic wfcs

     total cpu time spent up to now is       13.9 secs

     Self-consistent Calculation

     iteration #  1     ecut=    50.00 Ry     beta= 0.70
     Davidson diagonalization with overlap
     ethr =  1.00E-02,  avg # of iterations =  2.0

     Threshold (ethr) on eigenvalues was too large:
     Diagonalizing with lowered threshold

     Davidson diagonalization with overlap
     ethr =  5.70E-04,  avg # of iterations =  2.0

     total cpu time spent up to now is       91.4 secs

     total energy              =     -62.95790784 Ry
     estimated scf accuracy    <       0.21458268 Ry

     iteration #  2     ecut=    50.00 Ry     beta= 0.70
     Davidson diagonalization with overlap
     ethr =  6.71E-04,  avg # of iterations =  1.0

     total cpu time spent up to now is      117.9 secs

     total energy              =     -62.96475247 Ry
     estimated scf accuracy    <       0.01241427 Ry

     iteration #  3     ecut=    50.00 Ry     beta= 0.70
     Davidson diagonalization with overlap
     ethr =  3.88E-05,  avg # of iterations =  2.2

     total cpu time spent up to now is      158.5 secs

     total energy              =     -62.96717523 Ry
     estimated scf accuracy    <       0.00037617 Ry

     iteration #  4     ecut=    50.00 Ry     beta= 0.70
     Davidson diagonalization with overlap
     ethr =  1.18E-06,  avg # of iterations =  5.2

     total cpu time spent up to now is      217.7 secs

     total energy              =     -62.96746060 Ry
     estimated scf accuracy    <       0.00002248 Ry

     iteration #  5     ecut=    50.00 Ry     beta= 0.70
     Davidson diagonalization with overlap
     ethr =  7.02E-08,  avg # of iterations =  4.1

     total cpu time spent up to now is      270.0 secs

     End of self-consistent calculation

          k = 0.1000 0.1000 0.1000 (  6586 PWs)   bands (ev):

    -5.6183  -2.3700  -2.3695  -2.3695  -0.8973  -0.8969  -0.8969   2.8118
     2.8120   2.8120   3.3313   3.3313   3.3315   4.8891   5.8226   5.8226

          k = 0.1000 0.1000 0.3000 (  6590 PWs)   bands (ev):

    -5.2782  -3.6245  -2.2464  -2.2461  -0.9168  -0.9166   0.6704   2.1907
     2.1908   3.1035   3.1035   3.2273   3.6010   3.6347   5.0297   5.1930

          k = 0.1000 0.1000-0.5000 (  6578 PWs)   bands (ev):

    -4.6070  -4.6065  -2.1563  -2.1559  -0.9481  -0.9479   1.9792   1.9794
     2.1978   2.1980   2.8531   2.8532   4.0663   4.0666   4.2214   4.2219

          k = 0.1000 0.3000 0.3000 (  6597 PWs)   bands (ev):

    -4.9482  -3.3733  -3.3729  -2.4809  -0.7792   0.2302   0.2303   1.8787
     2.4332   2.6701   2.6702   3.6591   3.6594   3.8512   4.2893   5.5198

          k = 0.1000 0.3000-0.5000 (  6586 PWs)   bands (ev):

    -4.3021  -4.3016  -2.9349  -2.9345  -0.3590  -0.3588   1.3082   1.3084
     2.1237   2.1240   3.4087   3.4089   3.8390   3.8390   4.6986   4.6987

          k = 0.1000-0.5000-0.5000 (  6580 PWs)   bands (ev):

    -3.7199  -3.7191  -3.7191  -3.7190   0.3940   0.3942   0.3942   0.3944
     2.6422   2.6424   2.6424   2.6427   4.7263   4.7263   4.7267   4.7269

          k = 0.3000 0.3000 0.3000 (  6572 PWs)   bands (ev):

    -4.6351  -3.2295  -3.2289  -3.2289  -0.3672  -0.3672  -0.3672   1.3054
     2.9506   2.9511   2.9511   4.1056   4.1056   4.1059   5.1196   5.1196

          k = 0.3000 0.3000-0.5000 (  6562 PWs)   bands (ev):

    -4.0353  -4.0348  -3.1226  -3.1222  -0.6876  -0.6875   0.3314   0.3317
     3.1182   3.1187   4.2228   4.2228   4.3639   4.3640   4.5689   4.5694

          k = 0.3000-0.5000-0.5000 (  6592 PWs)   bands (ev):

    -3.5728  -3.5719  -3.5719  -3.5719  -0.4405  -0.4404  -0.4404  -0.4402
     3.9548   3.9552   3.9552   3.9555   4.7941   4.7941   4.7945   4.7946

          k =-0.5000-0.5000-0.5000 (  6704 PWs)   bands (ev):

    -3.4637  -3.4629  -3.4629  -3.4629  -0.8249  -0.8249  -0.8249  -0.8247
     4.8386   4.8386   4.8386   4.8392   4.8392   4.8392   4.8393   4.8393

     highest occupied level (ev):     5.8226

!    total energy              =     -62.96747120 Ry
     estimated scf accuracy    <       0.00000035 Ry

     The total energy is the sum of the following terms:
     one-electron contribution =      18.47536238 Ry
     hartree contribution      =       4.44929068 Ry
     xc contribution           =     -19.16315643 Ry
     ewald contribution        =     -66.72896783 Ry

     convergence has been achieved in   5 iterations

     Forces acting on atoms (cartesian axes, Ry/au):

     atom    1 type  1   force =     0.00000000    0.00000000    0.00000000
     atom    2 type  1   force =     0.00000000    0.00000000    0.00000000
     atom    3 type  1   force =     0.00000000    0.00000000    0.00000000
     atom    4 type  1   force =     0.00000000    0.00000000    0.00000000
     atom    5 type  1   force =    -0.00001451   -0.00001451    0.00001451
     atom    6 type  1   force =     0.00001451    0.00001451    0.00001451
     atom    7 type  1   force =    -0.00001451    0.00001451   -0.00001451
     atom    8 type  1   force =     0.00001451   -0.00001451   -0.00001451

     Total force =     0.000050     Total SCF correction =     0.000367
     SCF correction compared to forces is large: reduce conv_thr to get better values


     Computing stress (Cartesian axis) and pressure

          total   stress  (Ry/bohr**3)                   (kbar)     P=        3.47
   0.00002356   0.00000000   0.00000000            3.47        0.00        0.00
   0.00000000   0.00002356   0.00000000            0.00        3.47        0.00
   0.00000000   0.00000000   0.00002356            0.00        0.00        3.47


     Writing output data file ./Si8.save/

     init_run     :      5.76s CPU     13.61s WALL (       1 calls)
     electrons    :    110.42s CPU    256.17s WALL (       1 calls)
     forces       :      6.59s CPU     14.75s WALL (       1 calls)
     stress       :      1.26s CPU      3.27s WALL (       1 calls)

     Called by init_run:
     wfcinit      :      5.73s CPU     13.58s WALL (       1 calls)
     potinit      :      0.01s CPU      0.01s WALL (       1 calls)
     hinit0       :      0.01s CPU      0.01s WALL (       1 calls)

     Called by electrons:
     c_bands      :    109.84s CPU    255.38s WALL (       6 calls)
     sum_band     :      0.46s CPU      0.65s WALL (       6 calls)
     v_of_rho     :      0.02s CPU      0.02s WALL (       6 calls)
     mix_rho      :      0.00s CPU      0.00s WALL (       6 calls)

     Called by c_bands:
     init_us_2    :      0.01s CPU      0.06s WALL (     150 calls)
     cegterg      :    103.47s CPU    240.80s WALL (      60 calls)

     Called by *egterg:
     cdiaghg      :     11.23s CPU     18.35s WALL (     215 calls)
     h_psi        :     37.55s CPU     94.38s WALL (     235 calls)
     g_psi        :      0.00s CPU      0.00s WALL (     165 calls)

     Called by h_psi:
     h_psi:calbec :     23.15s CPU     62.14s WALL (     235 calls)
     vloc_psi     :     10.86s CPU     13.19s WALL (     235 calls)
     add_vuspsi   :      3.55s CPU     19.03s WALL (     235 calls)

     General routines
     calbec       :     30.84s CPU     79.46s WALL (     285 calls)
     fft          :      0.05s CPU      0.05s WALL (      68 calls)
     ffts         :      0.00s CPU      0.00s WALL (       6 calls)
     fftw         :     11.28s CPU     13.76s WALL (    7218 calls)

     Parallel routines
     fft_scatt_xy :      0.04s CPU      0.05s WALL (    7292 calls)
     fft_scatt_yz :     11.13s CPU     13.57s WALL (    7292 calls)

     PWSCF        :   2m 4.35s CPU   4m48.26s WALL


   This run was terminated on:  22: 5: 5  24Feb2022            

=------------------------------------------------------------------------------=
   JOB DONE.
=------------------------------------------------------------------------------=
