
     Program PWSCF v.7.0 starts on 19Feb2022 at 19: 6:47 

     This program is part of the open-source Quantum ESPRESSO suite
     for quantum simulation of materials; please cite
         "P. Giannozzi et al., J. Phys.:Condens. Matter 21 395502 (2009);
         "P. Giannozzi et al., J. Phys.:Condens. Matter 29 465901 (2017);
         "P. Giannozzi et al., J. Chem. Phys. 152 154105 (2020);
          URL http://www.quantum-espresso.org", 
     in publications or presentations arising from this work. More details at
     http://www.quantum-espresso.org/quote

     Parallel version (MPI), running on     1 processors

     MPI processes distributed on     1 nodes
     88480 MiB available memory on the printing compute node when the environment starts
 
     Waiting for input...
     Reading input from standard input
Warning: card &CELL ignored
Warning: card  CELL_DYNAMICS = 'BFGS', ignored
Warning: card  PRESS=0.1D0, ignored
Warning: card / ignored

     Current dimensions of program PWSCF are:
     Max number of different atomic species (ntypx) = 10
     Max number of k-points (npk) =  40000
     Max angular momentum in pseudopotentials (lmaxx) =  4

     Subspace diagonalization in iterative solution of the eigenvalue problem:
     a serial algorithm will be used

 
     G-vector sticks info
     --------------------
     sticks:   dense  smooth     PW     G-vecs:    dense   smooth      PW
     Sum        1237     421    127                28643     5577     965
 
     Using Slab Decomposition
 


     bravais-lattice index     =            2
     lattice parameter (alat)  =       8.6400  a.u.
     unit-cell volume          =     161.2431 (a.u.)^3
     number of atoms/cell      =            2
     number of atomic types    =            2
     number of electrons       =         8.00
     number of Kohn-Sham states=            4
     kinetic-energy cutoff     =      40.0000  Ry
     charge density cutoff     =     480.0000  Ry
     scf convergence threshold =      1.0E-08
     mixing beta               =       0.7000
     number of iterations used =            8  plain     mixing
     Exchange-correlation= SLA  PZ   NOGX NOGC
                           (   1   1   0   0   0   0   0)

     celldm(1)=   8.640000  celldm(2)=   0.000000  celldm(3)=   0.000000
     celldm(4)=   0.000000  celldm(5)=   0.000000  celldm(6)=   0.000000

     crystal axes: (cart. coord. in units of alat)
               a(1) = (  -0.500000   0.000000   0.500000 )  
               a(2) = (   0.000000   0.500000   0.500000 )  
               a(3) = (  -0.500000   0.500000   0.000000 )  

     reciprocal axes: (cart. coord. in units 2 pi/alat)
               b(1) = ( -1.000000 -1.000000  1.000000 )  
               b(2) = (  1.000000  1.000000  1.000000 )  
               b(3) = ( -1.000000  1.000000 -1.000000 )  


     PseudoPot. # 1 for B  read from file:
     ./pseudo_dir/B_LDA.UPF
     MD5 check sum: a9970de764dbc07c3a3d9583c605c3b2
     Pseudo is Ultrasoft + core correction, Zval =  3.0
     Generated by new atomic code, or converted to UPF format
     Using radial grid of  781 points,  4 beta functions with: 
                l(1) =   0
                l(2) =   0
                l(3) =   1
                l(4) =   1
     Q(r) pseudized with  8 coefficients,  rinner =    1.100   1.100   1.100


     PseudoPot. # 2 for As read from file:
     ./pseudo_dir/As_LDA.UPF
     MD5 check sum: 6d2e8cbe4ed9d0db7c6ef7a361cc050d
     Pseudo is Ultrasoft + core correction, Zval =  5.0
     Generated by new atomic code, or converted to UPF format
     Using radial grid of  875 points,  6 beta functions with: 
                l(1) =   0
                l(2) =   0
                l(3) =   1
                l(4) =   1
                l(5) =   2
                l(6) =   2
     Q(r) pseudized with  8 coefficients,  rinner =    1.300   1.300   1.300
                                                       1.300   1.300

     atomic species   valence    mass     pseudopotential
        B              3.00    10.81100     B ( 1.00)
        As             5.00    74.92160     As( 1.00)

     24 Sym. Ops. (no inversion) found



   Cartesian axes

     site n.     atom                  positions (alat units)
         1           B   tau(   1) = (   0.0000000   0.0000000   0.0000000  )
         2           As  tau(   2) = (  -0.2500000   0.2500000   0.2500000  )

     number of k points=     8
                       cart. coord. in units 2pi/alat
        k(    1) = (   0.0000000   0.0000000   0.0000000), wk =   0.0312500
        k(    2) = (  -0.2500000   0.2500000  -0.2500000), wk =   0.2500000
        k(    3) = (   0.5000000  -0.5000000   0.5000000), wk =   0.1250000
        k(    4) = (   0.0000000   0.5000000   0.0000000), wk =   0.1875000
        k(    5) = (   0.7500000  -0.2500000   0.7500000), wk =   0.7500000
        k(    6) = (   0.5000000   0.0000000   0.5000000), wk =   0.3750000
        k(    7) = (   0.0000000  -1.0000000   0.0000000), wk =   0.0937500
        k(    8) = (  -0.5000000  -1.0000000   0.0000000), wk =   0.1875000

     Dense  grid:    28643 G-vectors     FFT dimensions: (  45,  45,  45)

     Smooth grid:     5577 G-vectors     FFT dimensions: (  25,  25,  25)

     Estimated max dynamical RAM per process >     110.88 MB

     Initial potential from superposition of free atoms

     starting charge       7.9996, renormalised to       8.0000
     Starting wfcs are    8 randomized atomic wfcs

     total cpu time spent up to now is        3.4 secs

     Self-consistent Calculation

     iteration #  1     ecut=    40.00 Ry     beta= 0.70
     CG style diagonalization
     ethr =  1.00E-02,  avg # of iterations =  2.7

     total cpu time spent up to now is        4.0 secs

     total energy              =     -46.10884137 Ry
     estimated scf accuracy    <       0.20338590 Ry

     iteration #  2     ecut=    40.00 Ry     beta= 0.70
     CG style diagonalization
     ethr =  2.54E-03,  avg # of iterations =  4.3

     total cpu time spent up to now is        4.6 secs

     total energy              =     -46.15547886 Ry
     estimated scf accuracy    <       0.04375559 Ry

     iteration #  3     ecut=    40.00 Ry     beta= 0.70
     CG style diagonalization
     ethr =  5.47E-04,  avg # of iterations =  4.1

     total cpu time spent up to now is        5.2 secs

     total energy              =     -46.16479332 Ry
     estimated scf accuracy    <       0.00037615 Ry

     iteration #  4     ecut=    40.00 Ry     beta= 0.70
     CG style diagonalization
     ethr =  4.70E-06,  avg # of iterations =  4.6

     total cpu time spent up to now is        5.9 secs

     total energy              =     -46.16508970 Ry
     estimated scf accuracy    <       0.00009182 Ry

     iteration #  5     ecut=    40.00 Ry     beta= 0.70
     CG style diagonalization
     ethr =  1.15E-06,  avg # of iterations =  4.2

     total cpu time spent up to now is        6.5 secs

     total energy              =     -46.16511432 Ry
     estimated scf accuracy    <       0.00000670 Ry

     iteration #  6     ecut=    40.00 Ry     beta= 0.70
     CG style diagonalization
     ethr =  8.37E-08,  avg # of iterations =  5.0

     total cpu time spent up to now is        7.1 secs

     total energy              =     -46.16511878 Ry
     estimated scf accuracy    <       0.00000051 Ry

     iteration #  7     ecut=    40.00 Ry     beta= 0.70
     CG style diagonalization
     ethr =  6.33E-09,  avg # of iterations =  5.2

     total cpu time spent up to now is        7.8 secs

     total energy              =     -46.16511913 Ry
     estimated scf accuracy    <       0.00000019 Ry

     iteration #  8     ecut=    40.00 Ry     beta= 0.70
     CG style diagonalization
     ethr =  2.42E-09,  avg # of iterations =  4.6

     total cpu time spent up to now is        8.4 secs

     total energy              =     -46.16511921 Ry
     estimated scf accuracy    <       0.00000009 Ry

     iteration #  9     ecut=    40.00 Ry     beta= 0.70
     CG style diagonalization
     ethr =  1.13E-09,  avg # of iterations =  4.0

     total cpu time spent up to now is        9.0 secs

     End of self-consistent calculation

          k = 0.0000 0.0000 0.0000 (   701 PWs)   bands (ev):

    -6.3933  10.2859  10.2859  10.2859

          k =-0.2500 0.2500-0.2500 (   679 PWs)   bands (ev):

    -5.2638   4.8911   8.9807   8.9807

          k = 0.5000-0.5000 0.5000 (   700 PWs)   bands (ev):

    -3.0347   0.4821   8.2404   8.2404

          k = 0.0000 0.5000 0.0000 (   681 PWs)   bands (ev):

    -4.8793   6.1420   7.1767   7.1767

          k = 0.7500-0.2500 0.7500 (   687 PWs)   bands (ev):

    -2.6243   1.8907   4.9580   6.6577

          k = 0.5000 0.0000 0.5000 (   688 PWs)   bands (ev):

    -3.5189   3.1608   4.4667   8.0521

          k = 0.0000-1.0000 0.0000 (   692 PWs)   bands (ev):

    -1.5548   1.0724   5.6300   5.6300

          k =-0.5000-1.0000 0.0000 (   700 PWs)   bands (ev):

    -1.3138   1.7153   3.9092   4.2298

     highest occupied level (ev):    10.2859

!    total energy              =     -46.16511922 Ry
     estimated scf accuracy    <          3.9E-10 Ry

     The total energy is the sum of the following terms:
     one-electron contribution =       7.85968689 Ry
     hartree contribution      =       1.15782864 Ry
     xc contribution           =     -34.35585354 Ry
     ewald contribution        =     -20.82678121 Ry

     convergence has been achieved in   9 iterations

     Forces acting on atoms (cartesian axes, Ry/au):

     atom    1 type  1   force =     0.00000000    0.00000000    0.00000000
     atom    2 type  2   force =     0.00000000    0.00000000    0.00000000

     Total force =     0.000000     Total SCF correction =     0.000000


     Computing stress (Cartesian axis) and pressure

          total   stress  (Ry/bohr**3)                   (kbar)     P=      219.23
   0.00149029  -0.00000000   0.00000000          219.23       -0.00        0.00
   0.00000000   0.00149029  -0.00000000            0.00      219.23       -0.00
   0.00000000  -0.00000000   0.00149029            0.00       -0.00      219.23


     Writing all to output data dir ./2a4.save/
 
     init_run     :      1.74s CPU      2.00s WALL (       1 calls)
     electrons    :      5.06s CPU      5.67s WALL (       1 calls)
     forces       :      0.24s CPU      0.27s WALL (       1 calls)
     stress       :      1.96s CPU      2.06s WALL (       1 calls)

     Called by init_run:
     wfcinit      :      0.07s CPU      0.14s WALL (       1 calls)
     potinit      :      0.03s CPU      0.06s WALL (       1 calls)
     hinit0       :      1.43s CPU      1.52s WALL (       1 calls)

     Called by electrons:
     c_bands      :      1.53s CPU      1.69s WALL (       9 calls)
     sum_band     :      1.92s CPU      2.10s WALL (       9 calls)
     v_of_rho     :      0.23s CPU      0.24s WALL (      10 calls)
     newd         :      1.45s CPU      1.67s WALL (      10 calls)
     mix_rho      :      0.06s CPU      0.07s WALL (       9 calls)

     Called by c_bands:
     init_us_2    :      0.15s CPU      0.16s WALL (     168 calls)
     init_us_2:cp :      0.14s CPU      0.16s WALL (     168 calls)
     ccgdiagg     :      1.19s CPU      1.31s WALL (      72 calls)
     wfcrot       :      0.31s CPU      0.38s WALL (      72 calls)

     Called by *cgdiagg:
     h_psi        :      1.18s CPU      1.30s WALL (    1052 calls)
     s_psi        :      0.09s CPU      0.10s WALL (    2032 calls)

     Called by h_psi:
     h_psi:calbec :      0.09s CPU      0.11s WALL (    1052 calls)
     vloc_psi     :      0.99s CPU      1.07s WALL (    1052 calls)
     add_vuspsi   :      0.06s CPU      0.07s WALL (    1052 calls)
     hs_1psi      :      1.01s CPU      1.10s WALL (     980 calls)
     s_1psi       :      0.12s CPU      0.13s WALL (     980 calls)

     General routines
     calbec       :      0.13s CPU      0.15s WALL (    2144 calls)
     fft          :      0.16s CPU      0.19s WALL (      66 calls)
     ffts         :      0.01s CPU      0.01s WALL (      19 calls)
     fftw         :      0.95s CPU      1.02s WALL (    2888 calls)
     interpolate  :      0.03s CPU      0.04s WALL (      10 calls)
 
     Parallel routines
 
     PWSCF        :      9.78s CPU     11.80s WALL

 
   This run was terminated on:  19: 6:59  19Feb2022            

=------------------------------------------------------------------------------=
   JOB DONE.
=------------------------------------------------------------------------------=
