
     Program PWSCF v.7.0 starts on 19Feb2022 at 19: 7:37 

     This program is part of the open-source Quantum ESPRESSO suite
     for quantum simulation of materials; please cite
         "P. Giannozzi et al., J. Phys.:Condens. Matter 21 395502 (2009);
         "P. Giannozzi et al., J. Phys.:Condens. Matter 29 465901 (2017);
         "P. Giannozzi et al., J. Chem. Phys. 152 154105 (2020);
          URL http://www.quantum-espresso.org", 
     in publications or presentations arising from this work. More details at
     http://www.quantum-espresso.org/quote

     Parallel version (MPI), running on     1 processors

     MPI processes distributed on     1 nodes
     88478 MiB available memory on the printing compute node when the environment starts
 
     Waiting for input...
     Reading input from standard input
Warning: card &CELL ignored
Warning: card  CELL_DYNAMICS = 'BFGS', ignored
Warning: card  PRESS=0.1D0, ignored
Warning: card / ignored

     Current dimensions of program PWSCF are:
     Max number of different atomic species (ntypx) = 10
     Max number of k-points (npk) =  40000
     Max angular momentum in pseudopotentials (lmaxx) =  4

     Subspace diagonalization in iterative solution of the eigenvalue problem:
     a serial algorithm will be used

 
     G-vector sticks info
     --------------------
     sticks:   dense  smooth     PW     G-vecs:    dense   smooth      PW
     Sum        1213     409    121                27725     5329     941
 
     Using Slab Decomposition
 


     bravais-lattice index     =            2
     lattice parameter (alat)  =       8.5500  a.u.
     unit-cell volume          =     156.2566 (a.u.)^3
     number of atoms/cell      =            2
     number of atomic types    =            2
     number of electrons       =         8.00
     number of Kohn-Sham states=            4
     kinetic-energy cutoff     =      40.0000  Ry
     charge density cutoff     =     480.0000  Ry
     scf convergence threshold =      1.0E-08
     mixing beta               =       0.7000
     number of iterations used =            8  plain     mixing
     Exchange-correlation= SLA  PZ   NOGX NOGC
                           (   1   1   0   0   0   0   0)

     celldm(1)=   8.550000  celldm(2)=   0.000000  celldm(3)=   0.000000
     celldm(4)=   0.000000  celldm(5)=   0.000000  celldm(6)=   0.000000

     crystal axes: (cart. coord. in units of alat)
               a(1) = (  -0.500000   0.000000   0.500000 )  
               a(2) = (   0.000000   0.500000   0.500000 )  
               a(3) = (  -0.500000   0.500000   0.000000 )  

     reciprocal axes: (cart. coord. in units 2 pi/alat)
               b(1) = ( -1.000000 -1.000000  1.000000 )  
               b(2) = (  1.000000  1.000000  1.000000 )  
               b(3) = ( -1.000000  1.000000 -1.000000 )  


     PseudoPot. # 1 for B  read from file:
     ./pseudo_dir/B_LDA.UPF
     MD5 check sum: a9970de764dbc07c3a3d9583c605c3b2
     Pseudo is Ultrasoft + core correction, Zval =  3.0
     Generated by new atomic code, or converted to UPF format
     Using radial grid of  781 points,  4 beta functions with: 
                l(1) =   0
                l(2) =   0
                l(3) =   1
                l(4) =   1
     Q(r) pseudized with  8 coefficients,  rinner =    1.100   1.100   1.100


     PseudoPot. # 2 for As read from file:
     ./pseudo_dir/As_LDA.UPF
     MD5 check sum: 6d2e8cbe4ed9d0db7c6ef7a361cc050d
     Pseudo is Ultrasoft + core correction, Zval =  5.0
     Generated by new atomic code, or converted to UPF format
     Using radial grid of  875 points,  6 beta functions with: 
                l(1) =   0
                l(2) =   0
                l(3) =   1
                l(4) =   1
                l(5) =   2
                l(6) =   2
     Q(r) pseudized with  8 coefficients,  rinner =    1.300   1.300   1.300
                                                       1.300   1.300

     atomic species   valence    mass     pseudopotential
        B              3.00    10.81100     B ( 1.00)
        As             5.00    74.92160     As( 1.00)

     24 Sym. Ops. (no inversion) found



   Cartesian axes

     site n.     atom                  positions (alat units)
         1           B   tau(   1) = (   0.0000000   0.0000000   0.0000000  )
         2           As  tau(   2) = (  -0.2500000   0.2500000   0.2500000  )

     number of k points=     8
                       cart. coord. in units 2pi/alat
        k(    1) = (   0.0000000   0.0000000   0.0000000), wk =   0.0312500
        k(    2) = (  -0.2500000   0.2500000  -0.2500000), wk =   0.2500000
        k(    3) = (   0.5000000  -0.5000000   0.5000000), wk =   0.1250000
        k(    4) = (   0.0000000   0.5000000   0.0000000), wk =   0.1875000
        k(    5) = (   0.7500000  -0.2500000   0.7500000), wk =   0.7500000
        k(    6) = (   0.5000000   0.0000000   0.5000000), wk =   0.3750000
        k(    7) = (   0.0000000  -1.0000000   0.0000000), wk =   0.0937500
        k(    8) = (  -0.5000000  -1.0000000   0.0000000), wk =   0.1875000

     Dense  grid:    27725 G-vectors     FFT dimensions: (  45,  45,  45)

     Smooth grid:     5329 G-vectors     FFT dimensions: (  25,  25,  25)

     Estimated max dynamical RAM per process >     107.64 MB

     Initial potential from superposition of free atoms

     starting charge       7.9996, renormalised to       8.0000
     Starting wfcs are    8 randomized atomic wfcs

     total cpu time spent up to now is        3.4 secs

     Self-consistent Calculation

     iteration #  1     ecut=    40.00 Ry     beta= 0.70
     CG style diagonalization
     ethr =  1.00E-02,  avg # of iterations =  2.8

     total cpu time spent up to now is        4.0 secs

     total energy              =     -46.09582345 Ry
     estimated scf accuracy    <       0.21915978 Ry

     iteration #  2     ecut=    40.00 Ry     beta= 0.70
     CG style diagonalization
     ethr =  2.74E-03,  avg # of iterations =  4.3

     total cpu time spent up to now is        4.6 secs

     total energy              =     -46.14682273 Ry
     estimated scf accuracy    <       0.04374849 Ry

     iteration #  3     ecut=    40.00 Ry     beta= 0.70
     CG style diagonalization
     ethr =  5.47E-04,  avg # of iterations =  4.1

     total cpu time spent up to now is        5.2 secs

     total energy              =     -46.15605615 Ry
     estimated scf accuracy    <       0.00034870 Ry

     iteration #  4     ecut=    40.00 Ry     beta= 0.70
     CG style diagonalization
     ethr =  4.36E-06,  avg # of iterations =  4.6

     total cpu time spent up to now is        5.8 secs

     total energy              =     -46.15635189 Ry
     estimated scf accuracy    <       0.00009963 Ry

     iteration #  5     ecut=    40.00 Ry     beta= 0.70
     CG style diagonalization
     ethr =  1.25E-06,  avg # of iterations =  4.2

     total cpu time spent up to now is        6.4 secs

     total energy              =     -46.15637935 Ry
     estimated scf accuracy    <       0.00000950 Ry

     iteration #  6     ecut=    40.00 Ry     beta= 0.70
     CG style diagonalization
     ethr =  1.19E-07,  avg # of iterations =  4.7

     total cpu time spent up to now is        7.0 secs

     total energy              =     -46.15638458 Ry
     estimated scf accuracy    <       0.00000045 Ry

     iteration #  7     ecut=    40.00 Ry     beta= 0.70
     CG style diagonalization
     ethr =  5.59E-09,  avg # of iterations =  5.9

     total cpu time spent up to now is        7.7 secs

     total energy              =     -46.15638512 Ry
     estimated scf accuracy    <       0.00000024 Ry

     iteration #  8     ecut=    40.00 Ry     beta= 0.70
     CG style diagonalization
     ethr =  3.04E-09,  avg # of iterations =  4.6

     total cpu time spent up to now is        8.3 secs

     total energy              =     -46.15638518 Ry
     estimated scf accuracy    <       0.00000029 Ry

     iteration #  9     ecut=    40.00 Ry     beta= 0.70
     CG style diagonalization
     ethr =  3.04E-09,  avg # of iterations =  4.1

     total cpu time spent up to now is        8.9 secs

     End of self-consistent calculation

          k = 0.0000 0.0000 0.0000 (   645 PWs)   bands (ev):

    -6.2375  10.7665  10.7665  10.7665

          k =-0.2500 0.2500-0.2500 (   655 PWs)   bands (ev):

    -5.0756   5.2533   9.4224   9.4224

          k = 0.5000-0.5000 0.5000 (   652 PWs)   bands (ev):

    -2.7496   0.6976   8.6644   8.6644

          k = 0.0000 0.5000 0.0000 (   649 PWs)   bands (ev):

    -4.6808   6.6036   7.5560   7.5560

          k = 0.7500-0.2500 0.7500 (   672 PWs)   bands (ev):

    -2.3397   2.1856   5.2956   7.0246

          k = 0.5000 0.0000 0.5000 (   670 PWs)   bands (ev):

    -3.2720   3.5097   4.7700   8.4660

          k = 0.0000-1.0000 0.0000 (   692 PWs)   bands (ev):

    -1.2203   1.3546   5.9650   5.9650

          k =-0.5000-1.0000 0.0000 (   684 PWs)   bands (ev):

    -0.9567   2.0392   4.1719   4.4995

     highest occupied level (ev):    10.7665

!    total energy              =     -46.15638523 Ry
     estimated scf accuracy    <          3.0E-10 Ry

     The total energy is the sum of the following terms:
     one-electron contribution =       8.16475019 Ry
     hartree contribution      =       1.13407651 Ry
     xc contribution           =     -34.40920145 Ry
     ewald contribution        =     -21.04601048 Ry

     convergence has been achieved in   9 iterations

     Forces acting on atoms (cartesian axes, Ry/au):

     atom    1 type  1   force =    -0.00000000   -0.00000000   -0.00000000
     atom    2 type  2   force =    -0.00000000   -0.00000000   -0.00000000

     Total force =     0.000000     Total SCF correction =     0.000000


     Computing stress (Cartesian axis) and pressure

          total   stress  (Ry/bohr**3)                   (kbar)     P=      295.79
   0.00201072   0.00000000   0.00000000          295.79        0.00        0.00
   0.00000000   0.00201072  -0.00000000            0.00      295.79       -0.00
   0.00000000  -0.00000000   0.00201072            0.00       -0.00      295.79


     Writing all to output data dir ./2a5.save/
 
     init_run     :      1.74s CPU      1.99s WALL (       1 calls)
     electrons    :      4.92s CPU      5.51s WALL (       1 calls)
     forces       :      0.23s CPU      0.26s WALL (       1 calls)
     stress       :      1.90s CPU      1.99s WALL (       1 calls)

     Called by init_run:
     wfcinit      :      0.08s CPU      0.14s WALL (       1 calls)
     potinit      :      0.04s CPU      0.06s WALL (       1 calls)
     hinit0       :      1.43s CPU      1.52s WALL (       1 calls)

     Called by electrons:
     c_bands      :      1.49s CPU      1.68s WALL (       9 calls)
     sum_band     :      1.85s CPU      2.03s WALL (       9 calls)
     v_of_rho     :      0.24s CPU      0.24s WALL (      10 calls)
     newd         :      1.41s CPU      1.59s WALL (      10 calls)
     mix_rho      :      0.06s CPU      0.07s WALL (       9 calls)

     Called by c_bands:
     init_us_2    :      0.14s CPU      0.16s WALL (     168 calls)
     init_us_2:cp :      0.13s CPU      0.15s WALL (     168 calls)
     ccgdiagg     :      1.16s CPU      1.30s WALL (      72 calls)
     wfcrot       :      0.31s CPU      0.38s WALL (      72 calls)

     Called by *cgdiagg:
     h_psi        :      1.18s CPU      1.31s WALL (    1071 calls)
     s_psi        :      0.08s CPU      0.09s WALL (    2070 calls)

     Called by h_psi:
     h_psi:calbec :      0.08s CPU      0.11s WALL (    1071 calls)
     vloc_psi     :      1.00s CPU      1.09s WALL (    1071 calls)
     add_vuspsi   :      0.05s CPU      0.06s WALL (    1071 calls)
     hs_1psi      :      1.00s CPU      1.10s WALL (     999 calls)
     s_1psi       :      0.10s CPU      0.12s WALL (     999 calls)

     General routines
     calbec       :      0.12s CPU      0.14s WALL (    2182 calls)
     fft          :      0.16s CPU      0.19s WALL (      66 calls)
     ffts         :      0.01s CPU      0.01s WALL (      19 calls)
     fftw         :      0.96s CPU      1.04s WALL (    2926 calls)
     interpolate  :      0.03s CPU      0.04s WALL (      10 calls)
 
     Parallel routines
 
     PWSCF        :      9.58s CPU     11.59s WALL

 
   This run was terminated on:  19: 7:49  19Feb2022            

=------------------------------------------------------------------------------=
   JOB DONE.
=------------------------------------------------------------------------------=
