
     Program PWSCF v.7.0 starts on 19Feb2022 at 18:56:18 

     This program is part of the open-source Quantum ESPRESSO suite
     for quantum simulation of materials; please cite
         "P. Giannozzi et al., J. Phys.:Condens. Matter 21 395502 (2009);
         "P. Giannozzi et al., J. Phys.:Condens. Matter 29 465901 (2017);
         "P. Giannozzi et al., J. Chem. Phys. 152 154105 (2020);
          URL http://www.quantum-espresso.org", 
     in publications or presentations arising from this work. More details at
     http://www.quantum-espresso.org/quote

     Parallel version (MPI), running on     1 processors

     MPI processes distributed on     1 nodes
     88488 MiB available memory on the printing compute node when the environment starts
 
     Waiting for input...
     Reading input from standard input
Warning: card &CELL ignored
Warning: card  CELL_DYNAMICS = 'BFGS', ignored
Warning: card  PRESS=0.1D0, ignored
Warning: card / ignored

     Current dimensions of program PWSCF are:
     Max number of different atomic species (ntypx) = 10
     Max number of k-points (npk) =  40000
     Max angular momentum in pseudopotentials (lmaxx) =  4

     Subspace diagonalization in iterative solution of the eigenvalue problem:
     a serial algorithm will be used

 
     G-vector sticks info
     --------------------
     sticks:   dense  smooth     PW     G-vecs:    dense   smooth      PW
     Sum        1369     451    151                33487     6375    1139
 
     Using Slab Decomposition
 


     bravais-lattice index     =            2
     lattice parameter (alat)  =       9.0900  a.u.
     unit-cell volume          =     187.7724 (a.u.)^3
     number of atoms/cell      =            2
     number of atomic types    =            2
     number of electrons       =         8.00
     number of Kohn-Sham states=            4
     kinetic-energy cutoff     =      40.0000  Ry
     charge density cutoff     =     480.0000  Ry
     scf convergence threshold =      1.0E-08
     mixing beta               =       0.7000
     number of iterations used =            8  plain     mixing
     Exchange-correlation= SLA  PZ   NOGX NOGC
                           (   1   1   0   0   0   0   0)

     celldm(1)=   9.090000  celldm(2)=   0.000000  celldm(3)=   0.000000
     celldm(4)=   0.000000  celldm(5)=   0.000000  celldm(6)=   0.000000

     crystal axes: (cart. coord. in units of alat)
               a(1) = (  -0.500000   0.000000   0.500000 )  
               a(2) = (   0.000000   0.500000   0.500000 )  
               a(3) = (  -0.500000   0.500000   0.000000 )  

     reciprocal axes: (cart. coord. in units 2 pi/alat)
               b(1) = ( -1.000000 -1.000000  1.000000 )  
               b(2) = (  1.000000  1.000000  1.000000 )  
               b(3) = ( -1.000000  1.000000 -1.000000 )  


     PseudoPot. # 1 for B  read from file:
     ./pseudo_dir/B_LDA.UPF
     MD5 check sum: a9970de764dbc07c3a3d9583c605c3b2
     Pseudo is Ultrasoft + core correction, Zval =  3.0
     Generated by new atomic code, or converted to UPF format
     Using radial grid of  781 points,  4 beta functions with: 
                l(1) =   0
                l(2) =   0
                l(3) =   1
                l(4) =   1
     Q(r) pseudized with  8 coefficients,  rinner =    1.100   1.100   1.100


     PseudoPot. # 2 for As read from file:
     ./pseudo_dir/As_LDA.UPF
     MD5 check sum: 6d2e8cbe4ed9d0db7c6ef7a361cc050d
     Pseudo is Ultrasoft + core correction, Zval =  5.0
     Generated by new atomic code, or converted to UPF format
     Using radial grid of  875 points,  6 beta functions with: 
                l(1) =   0
                l(2) =   0
                l(3) =   1
                l(4) =   1
                l(5) =   2
                l(6) =   2
     Q(r) pseudized with  8 coefficients,  rinner =    1.300   1.300   1.300
                                                       1.300   1.300

     atomic species   valence    mass     pseudopotential
        B              3.00    10.81100     B ( 1.00)
        As             5.00    74.92160     As( 1.00)

     24 Sym. Ops. (no inversion) found



   Cartesian axes

     site n.     atom                  positions (alat units)
         1           B   tau(   1) = (   0.0000000   0.0000000   0.0000000  )
         2           As  tau(   2) = (  -0.2500000   0.2500000   0.2500000  )

     number of k points=     8
                       cart. coord. in units 2pi/alat
        k(    1) = (   0.0000000   0.0000000   0.0000000), wk =   0.0312500
        k(    2) = (  -0.2500000   0.2500000  -0.2500000), wk =   0.2500000
        k(    3) = (   0.5000000  -0.5000000   0.5000000), wk =   0.1250000
        k(    4) = (   0.0000000   0.5000000   0.0000000), wk =   0.1875000
        k(    5) = (   0.7500000  -0.2500000   0.7500000), wk =   0.7500000
        k(    6) = (   0.5000000   0.0000000   0.5000000), wk =   0.3750000
        k(    7) = (   0.0000000  -1.0000000   0.0000000), wk =   0.0937500
        k(    8) = (  -0.5000000  -1.0000000   0.0000000), wk =   0.1875000

     Dense  grid:    33487 G-vectors     FFT dimensions: (  45,  45,  45)

     Smooth grid:     6375 G-vectors     FFT dimensions: (  25,  25,  25)

     Estimated max dynamical RAM per process >     127.98 MB

     Initial potential from superposition of free atoms

     starting charge       7.9996, renormalised to       8.0000
     Starting wfcs are    8 randomized atomic wfcs

     total cpu time spent up to now is        4.2 secs

     Self-consistent Calculation

     iteration #  1     ecut=    40.00 Ry     beta= 0.70
     CG style diagonalization
     ethr =  1.00E-02,  avg # of iterations =  2.6

     total cpu time spent up to now is        4.9 secs

     total energy              =     -46.13722335 Ry
     estimated scf accuracy    <       0.14274790 Ry

     iteration #  2     ecut=    40.00 Ry     beta= 0.70
     CG style diagonalization
     ethr =  1.78E-03,  avg # of iterations =  4.4

     total cpu time spent up to now is        5.6 secs

     total energy              =     -46.16839920 Ry
     estimated scf accuracy    <       0.04170853 Ry

     iteration #  3     ecut=    40.00 Ry     beta= 0.70
     CG style diagonalization
     ethr =  5.21E-04,  avg # of iterations =  4.1

     total cpu time spent up to now is        6.2 secs

     total energy              =     -46.17748254 Ry
     estimated scf accuracy    <       0.00053436 Ry

     iteration #  4     ecut=    40.00 Ry     beta= 0.70
     CG style diagonalization
     ethr =  6.68E-06,  avg # of iterations =  4.3

     total cpu time spent up to now is        6.9 secs

     total energy              =     -46.17778249 Ry
     estimated scf accuracy    <       0.00003937 Ry

     iteration #  5     ecut=    40.00 Ry     beta= 0.70
     CG style diagonalization
     ethr =  4.92E-07,  avg # of iterations =  4.1

     total cpu time spent up to now is        7.6 secs

     total energy              =     -46.17779108 Ry
     estimated scf accuracy    <       0.00000042 Ry

     iteration #  6     ecut=    40.00 Ry     beta= 0.70
     CG style diagonalization
     ethr =  5.21E-09,  avg # of iterations =  6.5

     total cpu time spent up to now is        8.4 secs

     total energy              =     -46.17779316 Ry
     estimated scf accuracy    <       0.00000004 Ry

     iteration #  7     ecut=    40.00 Ry     beta= 0.70
     CG style diagonalization
     ethr =  5.29E-10,  avg # of iterations =  4.1

     total cpu time spent up to now is        9.0 secs

     End of self-consistent calculation

          k = 0.0000 0.0000 0.0000 (   821 PWs)   bands (ev):

    -7.0924   8.1301   8.1301   8.1301

          k =-0.2500 0.2500-0.2500 (   812 PWs)   bands (ev):

    -6.1150   3.2562   7.0063   7.0063

          k = 0.5000-0.5000 0.5000 (   796 PWs)   bands (ev):

    -4.3151  -0.4928   6.3501   6.3501

          k = 0.0000 0.5000 0.0000 (   817 PWs)   bands (ev):

    -5.7789   4.0686   5.4813   5.4813

          k = 0.7500-0.2500 0.7500 (   803 PWs)   bands (ev):

    -3.9199   0.5572   3.4733   5.0196

          k = 0.5000 0.0000 0.5000 (   804 PWs)   bands (ev):

    -4.6433   1.5898   3.1271   6.2042

          k = 0.0000-1.0000 0.0000 (   790 PWs)   bands (ev):

    -3.0740  -0.1900   4.1350   4.1350

          k =-0.5000-1.0000 0.0000 (   792 PWs)   bands (ev):

    -2.9211   0.2805   2.7312   3.0185

     highest occupied level (ev):     8.1301

!    total energy              =     -46.17779316 Ry
     estimated scf accuracy    <          9.5E-09 Ry

     The total energy is the sum of the following terms:
     one-electron contribution =       6.44917558 Ry
     hartree contribution      =       1.28402385 Ry
     xc contribution           =     -34.11524016 Ry
     ewald contribution        =     -19.79575243 Ry

     convergence has been achieved in   7 iterations

     Forces acting on atoms (cartesian axes, Ry/au):

     atom    1 type  1   force =    -0.00000000   -0.00000000    0.00000000
     atom    2 type  2   force =    -0.00000000   -0.00000000    0.00000000

     Total force =     0.000000     Total SCF correction =     0.000000


     Computing stress (Cartesian axis) and pressure

          total   stress  (Ry/bohr**3)                   (kbar)     P=      -47.64
  -0.00032384  -0.00000000  -0.00000000          -47.64       -0.00       -0.00
  -0.00000000  -0.00032384   0.00000000           -0.00      -47.64        0.00
  -0.00000000   0.00000000  -0.00032384           -0.00        0.00      -47.64


     Writing all to output data dir ./2a_1.save/
 
     init_run     :      1.76s CPU      2.14s WALL (       1 calls)
     electrons    :      4.35s CPU      4.90s WALL (       1 calls)
     forces       :      0.28s CPU      0.30s WALL (       1 calls)
     stress       :      2.28s CPU      2.38s WALL (       1 calls)

     Called by init_run:
     wfcinit      :      0.08s CPU      0.18s WALL (       1 calls)
     potinit      :      0.04s CPU      0.05s WALL (       1 calls)
     hinit0       :      1.43s CPU      1.56s WALL (       1 calls)

     Called by electrons:
     c_bands      :      1.19s CPU      1.37s WALL (       7 calls)
     sum_band     :      1.72s CPU      1.88s WALL (       7 calls)
     v_of_rho     :      0.19s CPU      0.19s WALL (       8 calls)
     newd         :      1.34s CPU      1.53s WALL (       8 calls)
     mix_rho      :      0.05s CPU      0.05s WALL (       7 calls)

     Called by c_bands:
     init_us_2    :      0.13s CPU      0.15s WALL (     136 calls)
     init_us_2:cp :      0.13s CPU      0.15s WALL (     136 calls)
     ccgdiagg     :      0.93s CPU      1.05s WALL (      56 calls)
     wfcrot       :      0.25s CPU      0.35s WALL (      56 calls)

     Called by *cgdiagg:
     h_psi        :      0.94s CPU      1.08s WALL (     823 calls)
     s_psi        :      0.07s CPU      0.08s WALL (    1590 calls)

     Called by h_psi:
     h_psi:calbec :      0.07s CPU      0.12s WALL (     823 calls)
     vloc_psi     :      0.78s CPU      0.86s WALL (     823 calls)
     add_vuspsi   :      0.05s CPU      0.05s WALL (     823 calls)
     hs_1psi      :      0.79s CPU      0.88s WALL (     767 calls)
     s_1psi       :      0.09s CPU      0.10s WALL (     767 calls)

     General routines
     calbec       :      0.10s CPU      0.16s WALL (    1686 calls)
     fft          :      0.13s CPU      0.16s WALL (      54 calls)
     ffts         :      0.01s CPU      0.01s WALL (      15 calls)
     fftw         :      0.74s CPU      0.81s WALL (    2270 calls)
     interpolate  :      0.03s CPU      0.03s WALL (       8 calls)
 
     Parallel routines
 
     PWSCF        :      9.44s CPU     12.29s WALL

 
   This run was terminated on:  18:56:30  19Feb2022            

=------------------------------------------------------------------------------=
   JOB DONE.
=------------------------------------------------------------------------------=
