
     Program PWSCF v.7.0 starts on 19Feb2022 at 18:58:46 

     This program is part of the open-source Quantum ESPRESSO suite
     for quantum simulation of materials; please cite
         "P. Giannozzi et al., J. Phys.:Condens. Matter 21 395502 (2009);
         "P. Giannozzi et al., J. Phys.:Condens. Matter 29 465901 (2017);
         "P. Giannozzi et al., J. Chem. Phys. 152 154105 (2020);
          URL http://www.quantum-espresso.org", 
     in publications or presentations arising from this work. More details at
     http://www.quantum-espresso.org/quote

     Parallel version (MPI), running on     1 processors

     MPI processes distributed on     1 nodes
     88492 MiB available memory on the printing compute node when the environment starts
 
     Waiting for input...
     Reading input from standard input
Warning: card &CELL ignored
Warning: card  CELL_DYNAMICS = 'BFGS', ignored
Warning: card  PRESS=0.1D0, ignored
Warning: card / ignored

     Current dimensions of program PWSCF are:
     Max number of different atomic species (ntypx) = 10
     Max number of k-points (npk) =  40000
     Max angular momentum in pseudopotentials (lmaxx) =  4

     Subspace diagonalization in iterative solution of the eigenvalue problem:
     a serial algorithm will be used

 
     G-vector sticks info
     --------------------
     sticks:   dense  smooth     PW     G-vecs:    dense   smooth      PW
     Sum        1417     475    151                35557     6855    1243
 
     Using Slab Decomposition
 


     bravais-lattice index     =            2
     lattice parameter (alat)  =       9.2700  a.u.
     unit-cell volume          =     199.1495 (a.u.)^3
     number of atoms/cell      =            2
     number of atomic types    =            2
     number of electrons       =         8.00
     number of Kohn-Sham states=            4
     kinetic-energy cutoff     =      40.0000  Ry
     charge density cutoff     =     480.0000  Ry
     scf convergence threshold =      1.0E-08
     mixing beta               =       0.7000
     number of iterations used =            8  plain     mixing
     Exchange-correlation= SLA  PZ   NOGX NOGC
                           (   1   1   0   0   0   0   0)

     celldm(1)=   9.270000  celldm(2)=   0.000000  celldm(3)=   0.000000
     celldm(4)=   0.000000  celldm(5)=   0.000000  celldm(6)=   0.000000

     crystal axes: (cart. coord. in units of alat)
               a(1) = (  -0.500000   0.000000   0.500000 )  
               a(2) = (   0.000000   0.500000   0.500000 )  
               a(3) = (  -0.500000   0.500000   0.000000 )  

     reciprocal axes: (cart. coord. in units 2 pi/alat)
               b(1) = ( -1.000000 -1.000000  1.000000 )  
               b(2) = (  1.000000  1.000000  1.000000 )  
               b(3) = ( -1.000000  1.000000 -1.000000 )  


     PseudoPot. # 1 for B  read from file:
     ./pseudo_dir/B_LDA.UPF
     MD5 check sum: a9970de764dbc07c3a3d9583c605c3b2
     Pseudo is Ultrasoft + core correction, Zval =  3.0
     Generated by new atomic code, or converted to UPF format
     Using radial grid of  781 points,  4 beta functions with: 
                l(1) =   0
                l(2) =   0
                l(3) =   1
                l(4) =   1
     Q(r) pseudized with  8 coefficients,  rinner =    1.100   1.100   1.100


     PseudoPot. # 2 for As read from file:
     ./pseudo_dir/As_LDA.UPF
     MD5 check sum: 6d2e8cbe4ed9d0db7c6ef7a361cc050d
     Pseudo is Ultrasoft + core correction, Zval =  5.0
     Generated by new atomic code, or converted to UPF format
     Using radial grid of  875 points,  6 beta functions with: 
                l(1) =   0
                l(2) =   0
                l(3) =   1
                l(4) =   1
                l(5) =   2
                l(6) =   2
     Q(r) pseudized with  8 coefficients,  rinner =    1.300   1.300   1.300
                                                       1.300   1.300

     atomic species   valence    mass     pseudopotential
        B              3.00    10.81100     B ( 1.00)
        As             5.00    74.92160     As( 1.00)

     24 Sym. Ops. (no inversion) found



   Cartesian axes

     site n.     atom                  positions (alat units)
         1           B   tau(   1) = (   0.0000000   0.0000000   0.0000000  )
         2           As  tau(   2) = (  -0.2500000   0.2500000   0.2500000  )

     number of k points=     8
                       cart. coord. in units 2pi/alat
        k(    1) = (   0.0000000   0.0000000   0.0000000), wk =   0.0312500
        k(    2) = (  -0.2500000   0.2500000  -0.2500000), wk =   0.2500000
        k(    3) = (   0.5000000  -0.5000000   0.5000000), wk =   0.1250000
        k(    4) = (   0.0000000   0.5000000   0.0000000), wk =   0.1875000
        k(    5) = (   0.7500000  -0.2500000   0.7500000), wk =   0.7500000
        k(    6) = (   0.5000000   0.0000000   0.5000000), wk =   0.3750000
        k(    7) = (   0.0000000  -1.0000000   0.0000000), wk =   0.0937500
        k(    8) = (  -0.5000000  -1.0000000   0.0000000), wk =   0.1875000

     Dense  grid:    35557 G-vectors     FFT dimensions: (  45,  45,  45)

     Smooth grid:     6855 G-vectors     FFT dimensions: (  27,  27,  27)

     Estimated max dynamical RAM per process >     135.28 MB

     Initial potential from superposition of free atoms

     starting charge       7.9996, renormalised to       8.0000
     Starting wfcs are    8 randomized atomic wfcs

     total cpu time spent up to now is        3.5 secs

     Self-consistent Calculation

     iteration #  1     ecut=    40.00 Ry     beta= 0.70
     CG style diagonalization
     ethr =  1.00E-02,  avg # of iterations =  2.4

     total cpu time spent up to now is        4.2 secs

     total energy              =     -46.13760446 Ry
     estimated scf accuracy    <       0.11988612 Ry

     iteration #  2     ecut=    40.00 Ry     beta= 0.70
     CG style diagonalization
     ethr =  1.50E-03,  avg # of iterations =  4.4

     total cpu time spent up to now is        5.0 secs

     total energy              =     -46.16248345 Ry
     estimated scf accuracy    <       0.03883252 Ry

     iteration #  3     ecut=    40.00 Ry     beta= 0.70
     CG style diagonalization
     ethr =  4.85E-04,  avg # of iterations =  4.1

     total cpu time spent up to now is        5.7 secs

     total energy              =     -46.17115788 Ry
     estimated scf accuracy    <       0.00066006 Ry

     iteration #  4     ecut=    40.00 Ry     beta= 0.70
     CG style diagonalization
     ethr =  8.25E-06,  avg # of iterations =  4.2

     total cpu time spent up to now is        6.5 secs

     total energy              =     -46.17146238 Ry
     estimated scf accuracy    <       0.00003676 Ry

     iteration #  5     ecut=    40.00 Ry     beta= 0.70
     CG style diagonalization
     ethr =  4.60E-07,  avg # of iterations =  4.0

     total cpu time spent up to now is        7.2 secs

     total energy              =     -46.17147190 Ry
     estimated scf accuracy    <       0.00000026 Ry

     iteration #  6     ecut=    40.00 Ry     beta= 0.70
     CG style diagonalization
     ethr =  3.28E-09,  avg # of iterations =  6.8

     total cpu time spent up to now is        8.1 secs

     total energy              =     -46.17147355 Ry
     estimated scf accuracy    <       0.00000005 Ry

     iteration #  7     ecut=    40.00 Ry     beta= 0.70
     CG style diagonalization
     ethr =  6.77E-10,  avg # of iterations =  4.4

     total cpu time spent up to now is        8.8 secs

     total energy              =     -46.17147357 Ry
     estimated scf accuracy    <       0.00000001 Ry

     iteration #  8     ecut=    40.00 Ry     beta= 0.70
     CG style diagonalization
     ethr =  1.73E-10,  avg # of iterations =  4.4

     total cpu time spent up to now is        9.6 secs

     End of self-consistent calculation

          k = 0.0000 0.0000 0.0000 (   869 PWs)   bands (ev):

    -7.3402   7.3710   7.3710   7.3710

          k =-0.2500 0.2500-0.2500 (   854 PWs)   bands (ev):

    -6.4193   2.6733   6.3137   6.3137

          k = 0.5000-0.5000 0.5000 (   862 PWs)   bands (ev):

    -4.7683  -0.8412   5.6887   5.6887

          k = 0.0000 0.5000 0.0000 (   849 PWs)   bands (ev):

    -6.1013   3.3357   4.8867   4.8867

          k = 0.7500-0.2500 0.7500 (   845 PWs)   bands (ev):

    -4.3855   0.0819   2.9626   4.4458

          k = 0.5000 0.0000 0.5000 (   847 PWs)   bands (ev):

    -5.0480   1.0333   2.6629   5.5569

          k = 0.0000-1.0000 0.0000 (   846 PWs)   bands (ev):

    -3.6180  -0.6336   3.6117   3.6117

          k =-0.5000-1.0000 0.0000 (   848 PWs)   bands (ev):

    -3.4908  -0.2182   2.3161   2.5909

     highest occupied level (ev):     7.3710

!    total energy              =     -46.17147357 Ry
     estimated scf accuracy    <          1.3E-09 Ry

     The total energy is the sum of the following terms:
     one-electron contribution =       5.93225293 Ry
     hartree contribution      =       1.33779546 Ry
     xc contribution           =     -34.03015306 Ry
     ewald contribution        =     -19.41136889 Ry

     convergence has been achieved in   8 iterations

     Forces acting on atoms (cartesian axes, Ry/au):

     atom    1 type  1   force =    -0.00000000    0.00000000   -0.00000000
     atom    2 type  2   force =     0.00000000    0.00000000   -0.00000000

     Total force =     0.000000     Total SCF correction =     0.000000


     Computing stress (Cartesian axis) and pressure

          total   stress  (Ry/bohr**3)                   (kbar)     P=     -113.54
  -0.00077180  -0.00000000  -0.00000000         -113.54       -0.00       -0.00
  -0.00000000  -0.00077180  -0.00000000           -0.00     -113.54       -0.00
  -0.00000000  -0.00000000  -0.00077180           -0.00       -0.00     -113.54


     Writing all to output data dir ./2a_3.save/
 
     init_run     :      1.81s CPU      2.06s WALL (       1 calls)
     electrons    :      5.46s CPU      6.10s WALL (       1 calls)
     forces       :      0.28s CPU      0.32s WALL (       1 calls)
     stress       :      2.39s CPU      2.52s WALL (       1 calls)

     Called by init_run:
     wfcinit      :      0.10s CPU      0.16s WALL (       1 calls)
     potinit      :      0.04s CPU      0.06s WALL (       1 calls)
     hinit0       :      1.41s CPU      1.52s WALL (       1 calls)

     Called by electrons:
     c_bands      :      1.64s CPU      1.81s WALL (       8 calls)
     sum_band     :      2.10s CPU      2.30s WALL (       8 calls)
     v_of_rho     :      0.21s CPU      0.22s WALL (       9 calls)
     newd         :      1.62s CPU      1.84s WALL (       9 calls)
     mix_rho      :      0.05s CPU      0.06s WALL (       8 calls)

     Called by c_bands:
     init_us_2    :      0.16s CPU      0.18s WALL (     152 calls)
     init_us_2:cp :      0.16s CPU      0.17s WALL (     152 calls)
     ccgdiagg     :      1.28s CPU      1.42s WALL (      64 calls)
     wfcrot       :      0.35s CPU      0.41s WALL (      64 calls)

     Called by *cgdiagg:
     h_psi        :      1.32s CPU      1.44s WALL (     949 calls)
     s_psi        :      0.10s CPU      0.11s WALL (    1834 calls)

     Called by h_psi:
     h_psi:calbec :      0.09s CPU      0.12s WALL (     949 calls)
     vloc_psi     :      1.12s CPU      1.20s WALL (     949 calls)
     add_vuspsi   :      0.06s CPU      0.07s WALL (     949 calls)
     hs_1psi      :      1.11s CPU      1.21s WALL (     885 calls)
     s_1psi       :      0.12s CPU      0.13s WALL (     885 calls)

     General routines
     calbec       :      0.13s CPU      0.16s WALL (    1938 calls)
     fft          :      0.15s CPU      0.18s WALL (      60 calls)
     ffts         :      0.01s CPU      0.01s WALL (      17 calls)
     fftw         :      1.07s CPU      1.15s WALL (    2602 calls)
     interpolate  :      0.03s CPU      0.04s WALL (       9 calls)
 
     Parallel routines
 
     PWSCF        :     10.72s CPU     12.87s WALL

 
   This run was terminated on:  18:58:59  19Feb2022            

=------------------------------------------------------------------------------=
   JOB DONE.
=------------------------------------------------------------------------------=
