
     Program PWSCF v.7.0 starts on 14Feb2022 at 16:42:50 

     This program is part of the open-source Quantum ESPRESSO suite
     for quantum simulation of materials; please cite
         "P. Giannozzi et al., J. Phys.:Condens. Matter 21 395502 (2009);
         "P. Giannozzi et al., J. Phys.:Condens. Matter 29 465901 (2017);
         "P. Giannozzi et al., J. Chem. Phys. 152 154105 (2020);
          URL http://www.quantum-espresso.org", 
     in publications or presentations arising from this work. More details at
     http://www.quantum-espresso.org/quote

     Parallel version (MPI), running on     1 processors

     MPI processes distributed on     1 nodes
     89496 MiB available memory on the printing compute node when the environment starts
 
     Waiting for input...
     Reading input from standard input
Warning: card &CELL ignored
Warning: card  CELL_DYNAMICS = 'BFGS', ignored
Warning: card  PRESS=0.1D0, ignored
Warning: card / ignored

     Current dimensions of program PWSCF are:
     Max number of different atomic species (ntypx) = 10
     Max number of k-points (npk) =  40000
     Max angular momentum in pseudopotentials (lmaxx) =  4

     Subspace diagonalization in iterative solution of the eigenvalue problem:
     a serial algorithm will be used

 
     G-vector sticks info
     --------------------
     sticks:   dense  smooth     PW     G-vecs:    dense   smooth      PW
     Sum        3343    1123    313               128013    24693    3839
 
     Using Slab Decomposition
 


     bravais-lattice index     =            2
     lattice parameter (alat)  =       9.0000  a.u.
     unit-cell volume          =     182.2500 (a.u.)^3
     number of atoms/cell      =            2
     number of atomic types    =            2
     number of electrons       =         8.00
     number of Kohn-Sham states=            4
     kinetic-energy cutoff     =     100.0000  Ry
     charge density cutoff     =    1200.0000  Ry
     scf convergence threshold =      1.0E-08
     mixing beta               =       0.7000
     number of iterations used =            8  plain     mixing
     Exchange-correlation= SLA  PZ   NOGX NOGC
                           (   1   1   0   0   0   0   0)

     celldm(1)=   9.000000  celldm(2)=   0.000000  celldm(3)=   0.000000
     celldm(4)=   0.000000  celldm(5)=   0.000000  celldm(6)=   0.000000

     crystal axes: (cart. coord. in units of alat)
               a(1) = (  -0.500000   0.000000   0.500000 )  
               a(2) = (   0.000000   0.500000   0.500000 )  
               a(3) = (  -0.500000   0.500000   0.000000 )  

     reciprocal axes: (cart. coord. in units 2 pi/alat)
               b(1) = ( -1.000000 -1.000000  1.000000 )  
               b(2) = (  1.000000  1.000000  1.000000 )  
               b(3) = ( -1.000000  1.000000 -1.000000 )  


     PseudoPot. # 1 for B  read from file:
     ./pseudo_dir/B_LDA.UPF
     MD5 check sum: a9970de764dbc07c3a3d9583c605c3b2
     Pseudo is Ultrasoft + core correction, Zval =  3.0
     Generated by new atomic code, or converted to UPF format
     Using radial grid of  781 points,  4 beta functions with: 
                l(1) =   0
                l(2) =   0
                l(3) =   1
                l(4) =   1
     Q(r) pseudized with  8 coefficients,  rinner =    1.100   1.100   1.100


     PseudoPot. # 2 for As read from file:
     ./pseudo_dir/As_LDA.UPF
     MD5 check sum: 6d2e8cbe4ed9d0db7c6ef7a361cc050d
     Pseudo is Ultrasoft + core correction, Zval =  5.0
     Generated by new atomic code, or converted to UPF format
     Using radial grid of  875 points,  6 beta functions with: 
                l(1) =   0
                l(2) =   0
                l(3) =   1
                l(4) =   1
                l(5) =   2
                l(6) =   2
     Q(r) pseudized with  8 coefficients,  rinner =    1.300   1.300   1.300
                                                       1.300   1.300

     atomic species   valence    mass     pseudopotential
        B              3.00    10.81100     B ( 1.00)
        As             5.00    74.92160     As( 1.00)

     24 Sym. Ops. (no inversion) found



   Cartesian axes

     site n.     atom                  positions (alat units)
         1           B   tau(   1) = (   0.0000000   0.0000000   0.0000000  )
         2           As  tau(   2) = (  -0.2500000   0.2500000   0.2500000  )

     number of k points=     8
                       cart. coord. in units 2pi/alat
        k(    1) = (   0.0000000   0.0000000   0.0000000), wk =   0.0312500
        k(    2) = (  -0.2500000   0.2500000  -0.2500000), wk =   0.2500000
        k(    3) = (   0.5000000  -0.5000000   0.5000000), wk =   0.1250000
        k(    4) = (   0.0000000   0.5000000   0.0000000), wk =   0.1875000
        k(    5) = (   0.7500000  -0.2500000   0.7500000), wk =   0.7500000
        k(    6) = (   0.5000000   0.0000000   0.5000000), wk =   0.3750000
        k(    7) = (   0.0000000  -1.0000000   0.0000000), wk =   0.0937500
        k(    8) = (  -0.5000000  -1.0000000   0.0000000), wk =   0.1875000

     Dense  grid:   128013 G-vectors     FFT dimensions: (  72,  72,  72)

     Smooth grid:    24693 G-vectors     FFT dimensions: (  45,  45,  45)

     Estimated max dynamical RAM per process >     483.06 MB

     Initial potential from superposition of free atoms

     starting charge       7.9996, renormalised to       8.0000
     Starting wfcs are    8 randomized atomic wfcs

     total cpu time spent up to now is        5.6 secs

     Self-consistent Calculation

     iteration #  1     ecut=   100.00 Ry     beta= 0.70
     CG style diagonalization
     ethr =  1.00E-02,  avg # of iterations =  2.6

     total cpu time spent up to now is        8.4 secs

     total energy              =     -46.13697924 Ry
     estimated scf accuracy    <       0.15201227 Ry

     iteration #  2     ecut=   100.00 Ry     beta= 0.70
     CG style diagonalization
     ethr =  1.90E-03,  avg # of iterations =  4.3

     total cpu time spent up to now is       11.5 secs

     total energy              =     -46.17026975 Ry
     estimated scf accuracy    <       0.04083437 Ry

     iteration #  3     ecut=   100.00 Ry     beta= 0.70
     CG style diagonalization
     ethr =  5.10E-04,  avg # of iterations =  4.1

     total cpu time spent up to now is       14.6 secs

     total energy              =     -46.17927584 Ry
     estimated scf accuracy    <       0.00046958 Ry

     iteration #  4     ecut=   100.00 Ry     beta= 0.70
     CG style diagonalization
     ethr =  5.87E-06,  avg # of iterations =  4.8

     total cpu time spent up to now is       17.8 secs

     total energy              =     -46.17963512 Ry
     estimated scf accuracy    <       0.00013318 Ry

     iteration #  5     ecut=   100.00 Ry     beta= 0.70
     CG style diagonalization
     ethr =  1.66E-06,  avg # of iterations =  4.3

     total cpu time spent up to now is       20.9 secs

     total energy              =     -46.17967419 Ry
     estimated scf accuracy    <       0.00001081 Ry

     iteration #  6     ecut=   100.00 Ry     beta= 0.70
     CG style diagonalization
     ethr =  1.35E-07,  avg # of iterations =  5.4

     total cpu time spent up to now is       24.3 secs

     total energy              =     -46.17968561 Ry
     estimated scf accuracy    <       0.00000184 Ry

     iteration #  7     ecut=   100.00 Ry     beta= 0.70
     CG style diagonalization
     ethr =  2.29E-08,  avg # of iterations =  3.8

     total cpu time spent up to now is       27.2 secs

     total energy              =     -46.17968369 Ry
     estimated scf accuracy    <       0.00000296 Ry

     iteration #  8     ecut=   100.00 Ry     beta= 0.70
     CG style diagonalization
     ethr =  2.29E-08,  avg # of iterations =  4.7

     total cpu time spent up to now is       30.4 secs

     total energy              =     -46.17968491 Ry
     estimated scf accuracy    <       0.00000256 Ry

     iteration #  9     ecut=   100.00 Ry     beta= 0.70
     CG style diagonalization
     ethr =  2.29E-08,  avg # of iterations =  3.4

     total cpu time spent up to now is       33.3 secs

     total energy              =     -46.17968502 Ry
     estimated scf accuracy    <       0.00000056 Ry

     iteration # 10     ecut=   100.00 Ry     beta= 0.70
     CG style diagonalization
     ethr =  7.00E-09,  avg # of iterations =  3.1

     total cpu time spent up to now is       36.2 secs

     total energy              =     -46.17968493 Ry
     estimated scf accuracy    <       0.00000042 Ry

     iteration # 11     ecut=   100.00 Ry     beta= 0.70
     CG style diagonalization
     ethr =  5.24E-09,  avg # of iterations =  3.3

     total cpu time spent up to now is       39.0 secs

     total energy              =     -46.17968501 Ry
     estimated scf accuracy    <       0.00000011 Ry

     iteration # 12     ecut=   100.00 Ry     beta= 0.70
     CG style diagonalization
     ethr =  1.42E-09,  avg # of iterations =  3.2

     total cpu time spent up to now is       41.8 secs

     total energy              =     -46.17968491 Ry
     estimated scf accuracy    <       0.00000018 Ry

     iteration # 13     ecut=   100.00 Ry     beta= 0.70
     CG style diagonalization
     ethr =  1.42E-09,  avg # of iterations =  4.3

     total cpu time spent up to now is       44.9 secs

     End of self-consistent calculation

          k = 0.0000 0.0000 0.0000 (  3119 PWs)   bands (ev):

    -6.9636   8.5275   8.5275   8.5275

          k =-0.2500 0.2500-0.2500 (  3065 PWs)   bands (ev):

    -5.9573   3.5593   7.3694   7.3694

          k = 0.5000-0.5000 0.5000 (  3100 PWs)   bands (ev):

    -4.0791  -0.3117   6.6972   6.6972

          k = 0.0000 0.5000 0.0000 (  3066 PWs)   bands (ev):

    -5.6119   4.4515   5.7930   5.7930

          k = 0.7500-0.2500 0.7500 (  3083 PWs)   bands (ev):

    -3.6788   0.8045   3.7430   5.3206

          k = 0.5000 0.0000 0.5000 (  3082 PWs)   bands (ev):

    -4.4339   1.8801   3.3713   6.5437

          k = 0.0000-1.0000 0.0000 (  3058 PWs)   bands (ev):

    -2.7919   0.0424   4.4096   4.4096

          k =-0.5000-1.0000 0.0000 (  3052 PWs)   bands (ev):

    -2.6243   0.5427   2.9482   3.2416

     highest occupied level (ev):     8.5275

!    total energy              =     -46.17968495 Ry
     estimated scf accuracy    <          7.3E-09 Ry

     The total energy is the sum of the following terms:
     one-electron contribution =       6.71196297 Ry
     hartree contribution      =       1.25759368 Ry
     xc contribution           =     -34.15553165 Ry
     ewald contribution        =     -19.99370996 Ry

     convergence has been achieved in  13 iterations

     Forces acting on atoms (cartesian axes, Ry/au):

     atom    1 type  1   force =    -0.00000000   -0.00000000   -0.00000000
     atom    2 type  2   force =     0.00000000    0.00000000   -0.00000000

     Total force =     0.000000     Total SCF correction =     0.000000


     Computing stress (Cartesian axis) and pressure

          total   stress  (Ry/bohr**3)                   (kbar)     P=       -7.80
  -0.00005305  -0.00000000   0.00000000           -7.80       -0.00        0.00
   0.00000000  -0.00005305  -0.00000000            0.00       -7.80       -0.00
   0.00000000  -0.00000000  -0.00005305            0.00       -0.00       -7.80


     Writing all to output data dir ./BAs_100.save/
 
     init_run     :      3.81s CPU      4.19s WALL (       1 calls)
     electrons    :     36.51s CPU     39.44s WALL (       1 calls)
     forces       :      1.06s CPU      1.15s WALL (       1 calls)
     stress       :      9.04s CPU      9.37s WALL (       1 calls)

     Called by init_run:
     wfcinit      :      0.49s CPU      0.56s WALL (       1 calls)
     potinit      :      0.14s CPU      0.18s WALL (       1 calls)
     hinit0       :      2.18s CPU      2.31s WALL (       1 calls)

     Called by electrons:
     c_bands      :     12.30s CPU     12.85s WALL (      13 calls)
     sum_band     :     13.51s CPU     14.67s WALL (      13 calls)
     v_of_rho     :      1.35s CPU      1.37s WALL (      14 calls)
     newd         :      9.53s CPU     10.72s WALL (      14 calls)
     mix_rho      :      0.36s CPU      0.37s WALL (      13 calls)

     Called by c_bands:
     init_us_2    :      0.92s CPU      0.95s WALL (     232 calls)
     init_us_2:cp :      0.92s CPU      0.94s WALL (     232 calls)
     ccgdiagg     :      9.30s CPU      9.74s WALL (     104 calls)
     wfcrot       :      2.95s CPU      3.07s WALL (     104 calls)

     Called by *cgdiagg:
     h_psi        :     10.81s CPU     11.13s WALL (    1361 calls)
     s_psi        :      0.63s CPU      0.74s WALL (    2618 calls)

     Called by h_psi:
     h_psi:calbec :      0.39s CPU      0.43s WALL (    1361 calls)
     vloc_psi     :      9.93s CPU     10.18s WALL (    1361 calls)
     add_vuspsi   :      0.37s CPU      0.42s WALL (    1361 calls)
     hs_1psi      :      8.42s CPU      8.71s WALL (    1257 calls)
     s_1psi       :      0.64s CPU      0.72s WALL (    1257 calls)

     General routines
     calbec       :      0.67s CPU      0.77s WALL (    2762 calls)
     fft          :      0.69s CPU      0.72s WALL (      90 calls)
     ffts         :      0.07s CPU      0.07s WALL (      27 calls)
     fftw         :      9.64s CPU      9.83s WALL (    3826 calls)
     interpolate  :      0.17s CPU      0.19s WALL (      14 calls)
 
     Parallel routines
 
     PWSCF        :     51.21s CPU     55.97s WALL

 
   This run was terminated on:  16:43:46  14Feb2022            

=------------------------------------------------------------------------------=
   JOB DONE.
=------------------------------------------------------------------------------=
