
     Program PWSCF v.7.0 starts on 14Feb2022 at 16:36:50 

     This program is part of the open-source Quantum ESPRESSO suite
     for quantum simulation of materials; please cite
         "P. Giannozzi et al., J. Phys.:Condens. Matter 21 395502 (2009);
         "P. Giannozzi et al., J. Phys.:Condens. Matter 29 465901 (2017);
         "P. Giannozzi et al., J. Chem. Phys. 152 154105 (2020);
          URL http://www.quantum-espresso.org", 
     in publications or presentations arising from this work. More details at
     http://www.quantum-espresso.org/quote

     Parallel version (MPI), running on     1 processors

     MPI processes distributed on     1 nodes
     87571 MiB available memory on the printing compute node when the environment starts
 
     Waiting for input...
     Reading input from standard input
Warning: card &CELL ignored
Warning: card  CELL_DYNAMICS = 'BFGS', ignored
Warning: card  PRESS=0.1D0, ignored
Warning: card / ignored

     Current dimensions of program PWSCF are:
     Max number of different atomic species (ntypx) = 10
     Max number of k-points (npk) =  40000
     Max angular momentum in pseudopotentials (lmaxx) =  4

     Subspace diagonalization in iterative solution of the eigenvalue problem:
     a serial algorithm will be used

 
     G-vector sticks info
     --------------------
     sticks:   dense  smooth     PW     G-vecs:    dense   smooth      PW
     Sum        2017     673    199                59535    11575    1917
 
     Using Slab Decomposition
 


     bravais-lattice index     =            2
     lattice parameter (alat)  =       9.0000  a.u.
     unit-cell volume          =     182.2500 (a.u.)^3
     number of atoms/cell      =            2
     number of atomic types    =            2
     number of electrons       =         8.00
     number of Kohn-Sham states=            4
     kinetic-energy cutoff     =      60.0000  Ry
     charge density cutoff     =     720.0000  Ry
     scf convergence threshold =      1.0E-08
     mixing beta               =       0.7000
     number of iterations used =            8  plain     mixing
     Exchange-correlation= SLA  PZ   NOGX NOGC
                           (   1   1   0   0   0   0   0)

     celldm(1)=   9.000000  celldm(2)=   0.000000  celldm(3)=   0.000000
     celldm(4)=   0.000000  celldm(5)=   0.000000  celldm(6)=   0.000000

     crystal axes: (cart. coord. in units of alat)
               a(1) = (  -0.500000   0.000000   0.500000 )  
               a(2) = (   0.000000   0.500000   0.500000 )  
               a(3) = (  -0.500000   0.500000   0.000000 )  

     reciprocal axes: (cart. coord. in units 2 pi/alat)
               b(1) = ( -1.000000 -1.000000  1.000000 )  
               b(2) = (  1.000000  1.000000  1.000000 )  
               b(3) = ( -1.000000  1.000000 -1.000000 )  


     PseudoPot. # 1 for B  read from file:
     ./pseudo_dir/B_LDA.UPF
     MD5 check sum: a9970de764dbc07c3a3d9583c605c3b2
     Pseudo is Ultrasoft + core correction, Zval =  3.0
     Generated by new atomic code, or converted to UPF format
     Using radial grid of  781 points,  4 beta functions with: 
                l(1) =   0
                l(2) =   0
                l(3) =   1
                l(4) =   1
     Q(r) pseudized with  8 coefficients,  rinner =    1.100   1.100   1.100


     PseudoPot. # 2 for As read from file:
     ./pseudo_dir/As_LDA.UPF
     MD5 check sum: 6d2e8cbe4ed9d0db7c6ef7a361cc050d
     Pseudo is Ultrasoft + core correction, Zval =  5.0
     Generated by new atomic code, or converted to UPF format
     Using radial grid of  875 points,  6 beta functions with: 
                l(1) =   0
                l(2) =   0
                l(3) =   1
                l(4) =   1
                l(5) =   2
                l(6) =   2
     Q(r) pseudized with  8 coefficients,  rinner =    1.300   1.300   1.300
                                                       1.300   1.300

     atomic species   valence    mass     pseudopotential
        B              3.00    10.81100     B ( 1.00)
        As             5.00    74.92160     As( 1.00)

     24 Sym. Ops. (no inversion) found



   Cartesian axes

     site n.     atom                  positions (alat units)
         1           B   tau(   1) = (   0.0000000   0.0000000   0.0000000  )
         2           As  tau(   2) = (  -0.2500000   0.2500000   0.2500000  )

     number of k points=     8
                       cart. coord. in units 2pi/alat
        k(    1) = (   0.0000000   0.0000000   0.0000000), wk =   0.0312500
        k(    2) = (  -0.2500000   0.2500000  -0.2500000), wk =   0.2500000
        k(    3) = (   0.5000000  -0.5000000   0.5000000), wk =   0.1250000
        k(    4) = (   0.0000000   0.5000000   0.0000000), wk =   0.1875000
        k(    5) = (   0.7500000  -0.2500000   0.7500000), wk =   0.7500000
        k(    6) = (   0.5000000   0.0000000   0.5000000), wk =   0.3750000
        k(    7) = (   0.0000000  -1.0000000   0.0000000), wk =   0.0937500
        k(    8) = (  -0.5000000  -1.0000000   0.0000000), wk =   0.1875000

     Dense  grid:    59535 G-vectors     FFT dimensions: (  60,  60,  60)

     Smooth grid:    11575 G-vectors     FFT dimensions: (  32,  32,  32)

     Estimated max dynamical RAM per process >     229.29 MB

     Initial potential from superposition of free atoms

     starting charge       7.9996, renormalised to       8.0000
     Starting wfcs are    8 randomized atomic wfcs

     total cpu time spent up to now is        4.2 secs

     Self-consistent Calculation

     iteration #  1     ecut=    60.00 Ry     beta= 0.70
     CG style diagonalization
     ethr =  1.00E-02,  avg # of iterations =  2.7

     total cpu time spent up to now is        5.4 secs

     total energy              =     -46.13637406 Ry
     estimated scf accuracy    <       0.15290915 Ry

     iteration #  2     ecut=    60.00 Ry     beta= 0.70
     CG style diagonalization
     ethr =  1.91E-03,  avg # of iterations =  4.3

     total cpu time spent up to now is        6.6 secs

     total energy              =     -46.17005799 Ry
     estimated scf accuracy    <       0.04073976 Ry

     iteration #  3     ecut=    60.00 Ry     beta= 0.70
     CG style diagonalization
     ethr =  5.09E-04,  avg # of iterations =  4.1

     total cpu time spent up to now is        7.8 secs

     total energy              =     -46.17895184 Ry
     estimated scf accuracy    <       0.00045133 Ry

     iteration #  4     ecut=    60.00 Ry     beta= 0.70
     CG style diagonalization
     ethr =  5.64E-06,  avg # of iterations =  4.8

     total cpu time spent up to now is        9.1 secs

     total energy              =     -46.17931656 Ry
     estimated scf accuracy    <       0.00016219 Ry

     iteration #  5     ecut=    60.00 Ry     beta= 0.70
     CG style diagonalization
     ethr =  2.03E-06,  avg # of iterations =  4.2

     total cpu time spent up to now is       10.3 secs

     total energy              =     -46.17935857 Ry
     estimated scf accuracy    <       0.00001034 Ry

     iteration #  6     ecut=    60.00 Ry     beta= 0.70
     CG style diagonalization
     ethr =  1.29E-07,  avg # of iterations =  5.0

     total cpu time spent up to now is       11.6 secs

     total energy              =     -46.17936521 Ry
     estimated scf accuracy    <       0.00000121 Ry

     iteration #  7     ecut=    60.00 Ry     beta= 0.70
     CG style diagonalization
     ethr =  1.51E-08,  avg # of iterations =  5.8

     total cpu time spent up to now is       12.9 secs

     total energy              =     -46.17936530 Ry
     estimated scf accuracy    <       0.00000362 Ry

     iteration #  8     ecut=    60.00 Ry     beta= 0.70
     CG style diagonalization
     ethr =  1.51E-08,  avg # of iterations =  4.6

     total cpu time spent up to now is       14.2 secs

     total energy              =     -46.17936633 Ry
     estimated scf accuracy    <       0.00000021 Ry

     iteration #  9     ecut=    60.00 Ry     beta= 0.70
     CG style diagonalization
     ethr =  2.60E-09,  avg # of iterations =  3.5

     total cpu time spent up to now is       15.3 secs

     total energy              =     -46.17936633 Ry
     estimated scf accuracy    <       0.00000004 Ry

     iteration # 10     ecut=    60.00 Ry     beta= 0.70
     CG style diagonalization
     ethr =  5.39E-10,  avg # of iterations =  4.7

     total cpu time spent up to now is       16.6 secs

     End of self-consistent calculation

          k = 0.0000 0.0000 0.0000 (  1459 PWs)   bands (ev):

    -6.9632   8.5287   8.5287   8.5287

          k =-0.2500 0.2500-0.2500 (  1411 PWs)   bands (ev):

    -5.9568   3.5603   7.3706   7.3706

          k = 0.5000-0.5000 0.5000 (  1458 PWs)   bands (ev):

    -4.0785  -0.3111   6.6984   6.6984

          k = 0.0000 0.5000 0.0000 (  1427 PWs)   bands (ev):

    -5.6114   4.4526   5.7941   5.7941

          k = 0.7500-0.2500 0.7500 (  1427 PWs)   bands (ev):

    -3.6781   0.8053   3.7440   5.3217

          k = 0.5000 0.0000 0.5000 (  1428 PWs)   bands (ev):

    -4.4334   1.8811   3.3722   6.5450

          k = 0.0000-1.0000 0.0000 (  1428 PWs)   bands (ev):

    -2.7912   0.0432   4.4106   4.4106

          k =-0.5000-1.0000 0.0000 (  1424 PWs)   bands (ev):

    -2.6235   0.5435   2.9491   3.2425

     highest occupied level (ev):     8.5287

!    total energy              =     -46.17936635 Ry
     estimated scf accuracy    <          5.2E-09 Ry

     The total energy is the sum of the following terms:
     one-electron contribution =       6.71403367 Ry
     hartree contribution      =       1.25766770 Ry
     xc contribution           =     -34.15735775 Ry
     ewald contribution        =     -19.99370996 Ry

     convergence has been achieved in  10 iterations

     Forces acting on atoms (cartesian axes, Ry/au):

     atom    1 type  1   force =     0.00000000    0.00000000   -0.00000000
     atom    2 type  2   force =     0.00000000   -0.00000000    0.00000000

     Total force =     0.000000     Total SCF correction =     0.000000


     Computing stress (Cartesian axis) and pressure

          total   stress  (Ry/bohr**3)                   (kbar)     P=       -8.32
  -0.00005653   0.00000000   0.00000000           -8.32        0.00        0.00
   0.00000000  -0.00005653   0.00000000            0.00       -8.32        0.00
  -0.00000000   0.00000000  -0.00005653           -0.00        0.00       -8.32


     Writing all to output data dir ./BAs_60.save/
 
     init_run     :      2.39s CPU      2.72s WALL (       1 calls)
     electrons    :     11.25s CPU     12.44s WALL (       1 calls)
     forces       :      0.50s CPU      0.56s WALL (       1 calls)
     stress       :      4.25s CPU      4.42s WALL (       1 calls)

     Called by init_run:
     wfcinit      :      0.12s CPU      0.18s WALL (       1 calls)
     potinit      :      0.08s CPU      0.12s WALL (       1 calls)
     hinit0       :      1.75s CPU      1.86s WALL (       1 calls)

     Called by electrons:
     c_bands      :      2.70s CPU      2.94s WALL (      10 calls)
     sum_band     :      4.55s CPU      4.99s WALL (      10 calls)
     v_of_rho     :      0.62s CPU      0.64s WALL (      11 calls)
     newd         :      3.50s CPU      3.96s WALL (      11 calls)
     mix_rho      :      0.15s CPU      0.16s WALL (      10 calls)

     Called by c_bands:
     init_us_2    :      0.34s CPU      0.36s WALL (     184 calls)
     init_us_2:cp :      0.34s CPU      0.36s WALL (     184 calls)
     ccgdiagg     :      2.10s CPU      2.28s WALL (      80 calls)
     wfcrot       :      0.50s CPU      0.58s WALL (      80 calls)

     Called by *cgdiagg:
     h_psi        :      2.00s CPU      2.16s WALL (    1187 calls)
     s_psi        :      0.21s CPU      0.24s WALL (    2294 calls)

     Called by h_psi:
     h_psi:calbec :      0.19s CPU      0.22s WALL (    1187 calls)
     vloc_psi     :      1.61s CPU      1.72s WALL (    1187 calls)
     add_vuspsi   :      0.13s CPU      0.15s WALL (    1187 calls)
     hs_1psi      :      1.74s CPU      1.87s WALL (    1107 calls)
     s_1psi       :      0.25s CPU      0.28s WALL (    1107 calls)

     General routines
     calbec       :      0.30s CPU      0.34s WALL (    2414 calls)
     fft          :      0.35s CPU      0.38s WALL (      72 calls)
     ffts         :      0.01s CPU      0.02s WALL (      21 calls)
     fftw         :      1.37s CPU      1.46s WALL (    3238 calls)
     interpolate  :      0.07s CPU      0.08s WALL (      11 calls)
 
     Parallel routines
 
     PWSCF        :     19.20s CPU     22.05s WALL

 
   This run was terminated on:  16:37:12  14Feb2022            

=------------------------------------------------------------------------------=
   JOB DONE.
=------------------------------------------------------------------------------=
