
     Program PWSCF v.7.0 starts on 14Feb2022 at 16:28:30 

     This program is part of the open-source Quantum ESPRESSO suite
     for quantum simulation of materials; please cite
         "P. Giannozzi et al., J. Phys.:Condens. Matter 21 395502 (2009);
         "P. Giannozzi et al., J. Phys.:Condens. Matter 29 465901 (2017);
         "P. Giannozzi et al., J. Chem. Phys. 152 154105 (2020);
          URL http://www.quantum-espresso.org", 
     in publications or presentations arising from this work. More details at
     http://www.quantum-espresso.org/quote

     Parallel version (MPI), running on     1 processors

     MPI processes distributed on     1 nodes
     88187 MiB available memory on the printing compute node when the environment starts
 
     Waiting for input...
     Reading input from standard input
Warning: card &CELL ignored
Warning: card  CELL_DYNAMICS = 'BFGS', ignored
Warning: card  PRESS=0.1D0, ignored
Warning: card / ignored

     Current dimensions of program PWSCF are:
     Max number of different atomic species (ntypx) = 10
     Max number of k-points (npk) =  40000
     Max angular momentum in pseudopotentials (lmaxx) =  4

     Subspace diagonalization in iterative solution of the eigenvalue problem:
     a serial algorithm will be used

 
     G-vector sticks info
     --------------------
     sticks:   dense  smooth     PW     G-vecs:    dense   smooth      PW
     Sum         337     109     37                 4015      749     169
 
     Using Slab Decomposition
 


     bravais-lattice index     =            2
     lattice parameter (alat)  =       9.0000  a.u.
     unit-cell volume          =     182.2500 (a.u.)^3
     number of atoms/cell      =            2
     number of atomic types    =            2
     number of electrons       =         8.00
     number of Kohn-Sham states=            4
     kinetic-energy cutoff     =      10.0000  Ry
     charge density cutoff     =     120.0000  Ry
     scf convergence threshold =      1.0E-08
     mixing beta               =       0.7000
     number of iterations used =            8  plain     mixing
     Exchange-correlation= SLA  PZ   NOGX NOGC
                           (   1   1   0   0   0   0   0)

     celldm(1)=   9.000000  celldm(2)=   0.000000  celldm(3)=   0.000000
     celldm(4)=   0.000000  celldm(5)=   0.000000  celldm(6)=   0.000000

     crystal axes: (cart. coord. in units of alat)
               a(1) = (  -0.500000   0.000000   0.500000 )  
               a(2) = (   0.000000   0.500000   0.500000 )  
               a(3) = (  -0.500000   0.500000   0.000000 )  

     reciprocal axes: (cart. coord. in units 2 pi/alat)
               b(1) = ( -1.000000 -1.000000  1.000000 )  
               b(2) = (  1.000000  1.000000  1.000000 )  
               b(3) = ( -1.000000  1.000000 -1.000000 )  


     PseudoPot. # 1 for B  read from file:
     ./pseudo_dir/B_LDA.UPF
     MD5 check sum: a9970de764dbc07c3a3d9583c605c3b2
     Pseudo is Ultrasoft + core correction, Zval =  3.0
     Generated by new atomic code, or converted to UPF format
     Using radial grid of  781 points,  4 beta functions with: 
                l(1) =   0
                l(2) =   0
                l(3) =   1
                l(4) =   1
     Q(r) pseudized with  8 coefficients,  rinner =    1.100   1.100   1.100


     PseudoPot. # 2 for As read from file:
     ./pseudo_dir/As_LDA.UPF
     MD5 check sum: 6d2e8cbe4ed9d0db7c6ef7a361cc050d
     Pseudo is Ultrasoft + core correction, Zval =  5.0
     Generated by new atomic code, or converted to UPF format
     Using radial grid of  875 points,  6 beta functions with: 
                l(1) =   0
                l(2) =   0
                l(3) =   1
                l(4) =   1
                l(5) =   2
                l(6) =   2
     Q(r) pseudized with  8 coefficients,  rinner =    1.300   1.300   1.300
                                                       1.300   1.300

     atomic species   valence    mass     pseudopotential
        B              3.00    10.81100     B ( 1.00)
        As             5.00    74.92160     As( 1.00)

     24 Sym. Ops. (no inversion) found



   Cartesian axes

     site n.     atom                  positions (alat units)
         1           B   tau(   1) = (   0.0000000   0.0000000   0.0000000  )
         2           As  tau(   2) = (  -0.2500000   0.2500000   0.2500000  )

     number of k points=     8
                       cart. coord. in units 2pi/alat
        k(    1) = (   0.0000000   0.0000000   0.0000000), wk =   0.0312500
        k(    2) = (  -0.2500000   0.2500000  -0.2500000), wk =   0.2500000
        k(    3) = (   0.5000000  -0.5000000   0.5000000), wk =   0.1250000
        k(    4) = (   0.0000000   0.5000000   0.0000000), wk =   0.1875000
        k(    5) = (   0.7500000  -0.2500000   0.7500000), wk =   0.7500000
        k(    6) = (   0.5000000   0.0000000   0.5000000), wk =   0.3750000
        k(    7) = (   0.0000000  -1.0000000   0.0000000), wk =   0.0937500
        k(    8) = (  -0.5000000  -1.0000000   0.0000000), wk =   0.1875000

     Dense  grid:     4015 G-vectors     FFT dimensions: (  24,  24,  24)

     Smooth grid:      749 G-vectors     FFT dimensions: (  15,  15,  15)

     Estimated max dynamical RAM per process >      16.88 MB

     Check: negative core charge=   -0.000004

     Initial potential from superposition of free atoms

     starting charge       7.9996, renormalised to       8.0000
     Starting wfcs are    8 randomized atomic wfcs

     total cpu time spent up to now is        3.1 secs

     Self-consistent Calculation

     iteration #  1     ecut=    10.00 Ry     beta= 0.70
     CG style diagonalization
     ethr =  1.00E-02,  avg # of iterations =  2.6

     Threshold (ethr) on eigenvalues was too large:
     Diagonalizing with lowered threshold

     CG style diagonalization
     ethr =  9.15E-04,  avg # of iterations =  2.0

     total cpu time spent up to now is        3.4 secs

     total energy              =     -45.94288766 Ry
     estimated scf accuracy    <       0.07243306 Ry

     iteration #  2     ecut=    10.00 Ry     beta= 0.70
     CG style diagonalization
     ethr =  9.05E-04,  avg # of iterations =  3.9

     total cpu time spent up to now is        3.5 secs

     total energy              =     -45.95042054 Ry
     estimated scf accuracy    <       0.00727160 Ry

     iteration #  3     ecut=    10.00 Ry     beta= 0.70
     CG style diagonalization
     ethr =  9.09E-05,  avg # of iterations =  4.1

     total cpu time spent up to now is        3.7 secs

     total energy              =     -45.95185960 Ry
     estimated scf accuracy    <       0.00069837 Ry

     iteration #  4     ecut=    10.00 Ry     beta= 0.70
     CG style diagonalization
     ethr =  8.73E-06,  avg # of iterations =  3.8

     total cpu time spent up to now is        3.8 secs

     total energy              =     -45.95195932 Ry
     estimated scf accuracy    <       0.00000297 Ry

     iteration #  5     ecut=    10.00 Ry     beta= 0.70
     CG style diagonalization
     ethr =  3.71E-08,  avg # of iterations =  4.3

     total cpu time spent up to now is        4.0 secs

     total energy              =     -45.95196217 Ry
     estimated scf accuracy    <       0.00000111 Ry

     iteration #  6     ecut=    10.00 Ry     beta= 0.70
     CG style diagonalization
     ethr =  1.38E-08,  avg # of iterations =  3.4

     total cpu time spent up to now is        4.1 secs

     total energy              =     -45.95196221 Ry
     estimated scf accuracy    <       0.00000011 Ry

     iteration #  7     ecut=    10.00 Ry     beta= 0.70
     CG style diagonalization
     ethr =  1.32E-09,  avg # of iterations =  4.2

     total cpu time spent up to now is        4.3 secs

     total energy              =     -45.95196225 Ry
     estimated scf accuracy    <       0.00000002 Ry

     iteration #  8     ecut=    10.00 Ry     beta= 0.70
     CG style diagonalization
     ethr =  2.37E-10,  avg # of iterations =  3.9

     total cpu time spent up to now is        4.5 secs

     End of self-consistent calculation

          k = 0.0000 0.0000 0.0000 (   113 PWs)   bands (ev):

    -6.7611   8.8128   8.8128   8.8128

          k =-0.2500 0.2500-0.2500 (    98 PWs)   bands (ev):

    -5.7141   3.7678   7.6989   7.6989

          k = 0.5000-0.5000 0.5000 (    90 PWs)   bands (ev):

    -3.6829  -0.2510   7.0802   7.0802

          k = 0.0000 0.5000 0.0000 (   101 PWs)   bands (ev):

    -5.3640   4.6470   6.0373   6.0373

          k = 0.7500-0.2500 0.7500 (    97 PWs)   bands (ev):

    -3.3304   0.8625   3.9418   5.6132

          k = 0.5000 0.0000 0.5000 (    97 PWs)   bands (ev):

    -4.1378   2.0109   3.5541   6.8620

          k = 0.0000-1.0000 0.0000 (    92 PWs)   bands (ev):

    -2.2873  -0.0317   4.7134   4.7134

          k =-0.5000-1.0000 0.0000 (   100 PWs)   bands (ev):

    -2.1780   0.4293   3.1471   3.4270

     highest occupied level (ev):     8.8128

!    total energy              =     -45.95196226 Ry
     estimated scf accuracy    <          3.1E-10 Ry

     The total energy is the sum of the following terms:
     one-electron contribution =       6.95765733 Ry
     hartree contribution      =       1.17414481 Ry
     xc contribution           =     -34.09005438 Ry
     ewald contribution        =     -19.99371002 Ry

     convergence has been achieved in   8 iterations

     Forces acting on atoms (cartesian axes, Ry/au):

     atom    1 type  1   force =     0.00000000    0.00000000    0.00000000
     atom    2 type  2   force =     0.00000000    0.00000000    0.00000000

     Total force =     0.000000     Total SCF correction =     0.000000


     Computing stress (Cartesian axis) and pressure

          total   stress  (Ry/bohr**3)                   (kbar)     P=     -144.20
  -0.00098027  -0.00000000   0.00000000         -144.20       -0.00        0.00
   0.00000000  -0.00098027   0.00000000            0.00     -144.20        0.00
   0.00000000  -0.00000000  -0.00098027            0.00       -0.00     -144.20


     Writing all to output data dir ./BAs_10.save/
 
     init_run     :      0.87s CPU      1.23s WALL (       1 calls)
     electrons    :      1.12s CPU      1.38s WALL (       1 calls)
     forces       :      0.04s CPU      0.05s WALL (       1 calls)
     stress       :      0.29s CPU      0.35s WALL (       1 calls)

     Called by init_run:
     wfcinit      :      0.03s CPU      0.13s WALL (       1 calls)
     potinit      :      0.01s CPU      0.03s WALL (       1 calls)
     hinit0       :      0.80s CPU      0.92s WALL (       1 calls)

     Called by electrons:
     c_bands      :      0.57s CPU      0.70s WALL (       9 calls)
     sum_band     :      0.33s CPU      0.36s WALL (       9 calls)
     v_of_rho     :      0.03s CPU      0.04s WALL (       9 calls)
     newd         :      0.20s CPU      0.22s WALL (       9 calls)
     mix_rho      :      0.01s CPU      0.01s WALL (       9 calls)

     Called by c_bands:
     init_us_2    :      0.02s CPU      0.03s WALL (     168 calls)
     init_us_2:cp :      0.02s CPU      0.03s WALL (     168 calls)
     ccgdiagg     :      0.44s CPU      0.53s WALL (      72 calls)
     wfcrot       :      0.14s CPU      0.23s WALL (      64 calls)

     Called by *cgdiagg:
     h_psi        :      0.42s CPU      0.53s WALL (     871 calls)
     s_psi        :      0.03s CPU      0.04s WALL (    1678 calls)

     Called by h_psi:
     h_psi:calbec :      0.03s CPU      0.08s WALL (     871 calls)
     vloc_psi     :      0.34s CPU      0.39s WALL (     871 calls)
     add_vuspsi   :      0.02s CPU      0.02s WALL (     871 calls)
     hs_1psi      :      0.36s CPU      0.43s WALL (     807 calls)
     s_1psi       :      0.05s CPU      0.06s WALL (     807 calls)

     General routines
     calbec       :      0.03s CPU      0.08s WALL (    1790 calls)
     fft          :      0.02s CPU      0.04s WALL (      61 calls)
     ffts         :      0.00s CPU      0.01s WALL (      18 calls)
     fftw         :      0.34s CPU      0.39s WALL (    2478 calls)
     interpolate  :      0.01s CPU      0.01s WALL (       9 calls)
 
     Parallel routines
 
     PWSCF        :      3.12s CPU      5.42s WALL

 
   This run was terminated on:  16:28:35  14Feb2022            

=------------------------------------------------------------------------------=
   JOB DONE.
=------------------------------------------------------------------------------=
