
     Program PWSCF v.7.0 starts on 14Feb2022 at 16:41: 6 

     This program is part of the open-source Quantum ESPRESSO suite
     for quantum simulation of materials; please cite
         "P. Giannozzi et al., J. Phys.:Condens. Matter 21 395502 (2009);
         "P. Giannozzi et al., J. Phys.:Condens. Matter 29 465901 (2017);
         "P. Giannozzi et al., J. Chem. Phys. 152 154105 (2020);
          URL http://www.quantum-espresso.org", 
     in publications or presentations arising from this work. More details at
     http://www.quantum-espresso.org/quote

     Parallel version (MPI), running on     1 processors

     MPI processes distributed on     1 nodes
     89498 MiB available memory on the printing compute node when the environment starts
 
     Waiting for input...
     Reading input from standard input
Warning: card &CELL ignored
Warning: card  CELL_DYNAMICS = 'BFGS', ignored
Warning: card  PRESS=0.1D0, ignored
Warning: card / ignored

     Current dimensions of program PWSCF are:
     Max number of different atomic species (ntypx) = 10
     Max number of k-points (npk) =  40000
     Max angular momentum in pseudopotentials (lmaxx) =  4

     Subspace diagonalization in iterative solution of the eigenvalue problem:
     a serial algorithm will be used

 
     G-vector sticks info
     --------------------
     sticks:   dense  smooth     PW     G-vecs:    dense   smooth      PW
     Sum        3013    1003    301               109003    20875    3383
 
     Using Slab Decomposition
 


     bravais-lattice index     =            2
     lattice parameter (alat)  =       9.0000  a.u.
     unit-cell volume          =     182.2500 (a.u.)^3
     number of atoms/cell      =            2
     number of atomic types    =            2
     number of electrons       =         8.00
     number of Kohn-Sham states=            4
     kinetic-energy cutoff     =      90.0000  Ry
     charge density cutoff     =    1080.0000  Ry
     scf convergence threshold =      1.0E-08
     mixing beta               =       0.7000
     number of iterations used =            8  plain     mixing
     Exchange-correlation= SLA  PZ   NOGX NOGC
                           (   1   1   0   0   0   0   0)

     celldm(1)=   9.000000  celldm(2)=   0.000000  celldm(3)=   0.000000
     celldm(4)=   0.000000  celldm(5)=   0.000000  celldm(6)=   0.000000

     crystal axes: (cart. coord. in units of alat)
               a(1) = (  -0.500000   0.000000   0.500000 )  
               a(2) = (   0.000000   0.500000   0.500000 )  
               a(3) = (  -0.500000   0.500000   0.000000 )  

     reciprocal axes: (cart. coord. in units 2 pi/alat)
               b(1) = ( -1.000000 -1.000000  1.000000 )  
               b(2) = (  1.000000  1.000000  1.000000 )  
               b(3) = ( -1.000000  1.000000 -1.000000 )  


     PseudoPot. # 1 for B  read from file:
     ./pseudo_dir/B_LDA.UPF
     MD5 check sum: a9970de764dbc07c3a3d9583c605c3b2
     Pseudo is Ultrasoft + core correction, Zval =  3.0
     Generated by new atomic code, or converted to UPF format
     Using radial grid of  781 points,  4 beta functions with: 
                l(1) =   0
                l(2) =   0
                l(3) =   1
                l(4) =   1
     Q(r) pseudized with  8 coefficients,  rinner =    1.100   1.100   1.100


     PseudoPot. # 2 for As read from file:
     ./pseudo_dir/As_LDA.UPF
     MD5 check sum: 6d2e8cbe4ed9d0db7c6ef7a361cc050d
     Pseudo is Ultrasoft + core correction, Zval =  5.0
     Generated by new atomic code, or converted to UPF format
     Using radial grid of  875 points,  6 beta functions with: 
                l(1) =   0
                l(2) =   0
                l(3) =   1
                l(4) =   1
                l(5) =   2
                l(6) =   2
     Q(r) pseudized with  8 coefficients,  rinner =    1.300   1.300   1.300
                                                       1.300   1.300

     atomic species   valence    mass     pseudopotential
        B              3.00    10.81100     B ( 1.00)
        As             5.00    74.92160     As( 1.00)

     24 Sym. Ops. (no inversion) found



   Cartesian axes

     site n.     atom                  positions (alat units)
         1           B   tau(   1) = (   0.0000000   0.0000000   0.0000000  )
         2           As  tau(   2) = (  -0.2500000   0.2500000   0.2500000  )

     number of k points=     8
                       cart. coord. in units 2pi/alat
        k(    1) = (   0.0000000   0.0000000   0.0000000), wk =   0.0312500
        k(    2) = (  -0.2500000   0.2500000  -0.2500000), wk =   0.2500000
        k(    3) = (   0.5000000  -0.5000000   0.5000000), wk =   0.1250000
        k(    4) = (   0.0000000   0.5000000   0.0000000), wk =   0.1875000
        k(    5) = (   0.7500000  -0.2500000   0.7500000), wk =   0.7500000
        k(    6) = (   0.5000000   0.0000000   0.5000000), wk =   0.3750000
        k(    7) = (   0.0000000  -1.0000000   0.0000000), wk =   0.0937500
        k(    8) = (  -0.5000000  -1.0000000   0.0000000), wk =   0.1875000

     Dense  grid:   109003 G-vectors     FFT dimensions: (  72,  72,  72)

     Smooth grid:    20875 G-vectors     FFT dimensions: (  40,  40,  40)

     Estimated max dynamical RAM per process >     415.68 MB

     Initial potential from superposition of free atoms

     starting charge       7.9996, renormalised to       8.0000
     Starting wfcs are    8 randomized atomic wfcs

     total cpu time spent up to now is        5.1 secs

     Self-consistent Calculation

     iteration #  1     ecut=    90.00 Ry     beta= 0.70
     CG style diagonalization
     ethr =  1.00E-02,  avg # of iterations =  2.6

     total cpu time spent up to now is        7.4 secs

     total energy              =     -46.13629382 Ry
     estimated scf accuracy    <       0.15334561 Ry

     iteration #  2     ecut=    90.00 Ry     beta= 0.70
     CG style diagonalization
     ethr =  1.92E-03,  avg # of iterations =  4.3

     total cpu time spent up to now is        9.8 secs

     total energy              =     -46.17008361 Ry
     estimated scf accuracy    <       0.04166156 Ry

     iteration #  3     ecut=    90.00 Ry     beta= 0.70
     CG style diagonalization
     ethr =  5.21E-04,  avg # of iterations =  4.2

     total cpu time spent up to now is       12.2 secs

     total energy              =     -46.17925680 Ry
     estimated scf accuracy    <       0.00046806 Ry

     iteration #  4     ecut=    90.00 Ry     beta= 0.70
     CG style diagonalization
     ethr =  5.85E-06,  avg # of iterations =  4.8

     total cpu time spent up to now is       14.6 secs

     total energy              =     -46.17961006 Ry
     estimated scf accuracy    <       0.00012243 Ry

     iteration #  5     ecut=    90.00 Ry     beta= 0.70
     CG style diagonalization
     ethr =  1.53E-06,  avg # of iterations =  4.3

     total cpu time spent up to now is       17.0 secs

     total energy              =     -46.17964629 Ry
     estimated scf accuracy    <       0.00000921 Ry

     iteration #  6     ecut=    90.00 Ry     beta= 0.70
     CG style diagonalization
     ethr =  1.15E-07,  avg # of iterations =  5.6

     total cpu time spent up to now is       19.7 secs

     total energy              =     -46.17965662 Ry
     estimated scf accuracy    <       0.00000151 Ry

     iteration #  7     ecut=    90.00 Ry     beta= 0.70
     CG style diagonalization
     ethr =  1.89E-08,  avg # of iterations =  3.7

     total cpu time spent up to now is       22.0 secs

     total energy              =     -46.17965588 Ry
     estimated scf accuracy    <       0.00000147 Ry

     iteration #  8     ecut=    90.00 Ry     beta= 0.70
     CG style diagonalization
     ethr =  1.84E-08,  avg # of iterations =  4.9

     total cpu time spent up to now is       24.5 secs

     total energy              =     -46.17965652 Ry
     estimated scf accuracy    <       0.00000516 Ry

     iteration #  9     ecut=    90.00 Ry     beta= 0.70
     CG style diagonalization
     ethr =  1.84E-08,  avg # of iterations =  3.9

     total cpu time spent up to now is       26.8 secs

     total energy              =     -46.17965669 Ry
     estimated scf accuracy    <       0.00000132 Ry

     iteration # 10     ecut=    90.00 Ry     beta= 0.70
     CG style diagonalization
     ethr =  1.65E-08,  avg # of iterations =  3.0

     total cpu time spent up to now is       29.0 secs

     total energy              =     -46.17965651 Ry
     estimated scf accuracy    <       0.00000114 Ry

     iteration # 11     ecut=    90.00 Ry     beta= 0.70
     CG style diagonalization
     ethr =  1.42E-08,  avg # of iterations =  3.0

     total cpu time spent up to now is       31.3 secs

     total energy              =     -46.17965690 Ry
     estimated scf accuracy    <       0.00000065 Ry

     iteration # 12     ecut=    90.00 Ry     beta= 0.70
     CG style diagonalization
     ethr =  8.18E-09,  avg # of iterations =  3.0

     total cpu time spent up to now is       33.5 secs

     total energy              =     -46.17965614 Ry
     estimated scf accuracy    <       0.00000140 Ry

     iteration # 13     ecut=    90.00 Ry     beta= 0.70
     CG style diagonalization
     ethr =  8.18E-09,  avg # of iterations =  4.3

     total cpu time spent up to now is       35.8 secs

     End of self-consistent calculation

          k = 0.0000 0.0000 0.0000 (  2685 PWs)   bands (ev):

    -6.9635   8.5277   8.5277   8.5277

          k =-0.2500 0.2500-0.2500 (  2632 PWs)   bands (ev):

    -5.9572   3.5595   7.3696   7.3696

          k = 0.5000-0.5000 0.5000 (  2608 PWs)   bands (ev):

    -4.0791  -0.3116   6.6974   6.6974

          k = 0.0000 0.5000 0.0000 (  2650 PWs)   bands (ev):

    -5.6119   4.4517   5.7932   5.7932

          k = 0.7500-0.2500 0.7500 (  2626 PWs)   bands (ev):

    -3.6787   0.8047   3.7432   5.3208

          k = 0.5000 0.0000 0.5000 (  2642 PWs)   bands (ev):

    -4.4339   1.8803   3.3714   6.5439

          k = 0.0000-1.0000 0.0000 (  2586 PWs)   bands (ev):

    -2.7918   0.0426   4.4098   4.4098

          k =-0.5000-1.0000 0.0000 (  2608 PWs)   bands (ev):

    -2.6242   0.5429   2.9484   3.2418

     highest occupied level (ev):     8.5277

!    total energy              =     -46.17965637 Ry
     estimated scf accuracy    <          1.1E-09 Ry

     The total energy is the sum of the following terms:
     one-electron contribution =       6.71213514 Ry
     hartree contribution      =       1.25756273 Ry
     xc contribution           =     -34.15564428 Ry
     ewald contribution        =     -19.99370996 Ry

     convergence has been achieved in  13 iterations

     Forces acting on atoms (cartesian axes, Ry/au):

     atom    1 type  1   force =    -0.00000000    0.00000000   -0.00000000
     atom    2 type  2   force =     0.00000000   -0.00000000    0.00000000

     Total force =     0.000000     Total SCF correction =     0.000000


     Computing stress (Cartesian axis) and pressure

          total   stress  (Ry/bohr**3)                   (kbar)     P=       -7.76
  -0.00005275  -0.00000000   0.00000000           -7.76       -0.00        0.00
   0.00000000  -0.00005275   0.00000000            0.00       -7.76        0.00
  -0.00000000  -0.00000000  -0.00005275           -0.00       -0.00       -7.76


     Writing all to output data dir ./BAs_90.save/
 
     init_run     :      3.37s CPU      3.74s WALL (       1 calls)
     electrons    :     28.22s CPU     30.79s WALL (       1 calls)
     forces       :      0.92s CPU      1.01s WALL (       1 calls)
     stress       :      7.76s CPU      8.03s WALL (       1 calls)

     Called by init_run:
     wfcinit      :      0.31s CPU      0.38s WALL (       1 calls)
     potinit      :      0.13s CPU      0.17s WALL (       1 calls)
     hinit0       :      2.10s CPU      2.21s WALL (       1 calls)

     Called by electrons:
     c_bands      :      7.81s CPU      8.33s WALL (      13 calls)
     sum_band     :     11.10s CPU     12.10s WALL (      13 calls)
     v_of_rho     :      1.33s CPU      1.37s WALL (      14 calls)
     newd         :      8.07s CPU      9.11s WALL (      14 calls)
     mix_rho      :      0.33s CPU      0.35s WALL (      13 calls)

     Called by c_bands:
     init_us_2    :      0.79s CPU      0.82s WALL (     232 calls)
     init_us_2:cp :      0.79s CPU      0.82s WALL (     232 calls)
     ccgdiagg     :      5.92s CPU      6.35s WALL (     104 calls)
     wfcrot       :      1.73s CPU      1.85s WALL (     104 calls)

     Called by *cgdiagg:
     h_psi        :      6.31s CPU      6.63s WALL (    1373 calls)
     s_psi        :      0.58s CPU      0.69s WALL (    2642 calls)

     Called by h_psi:
     h_psi:calbec :      0.37s CPU      0.41s WALL (    1373 calls)
     vloc_psi     :      5.49s CPU      5.73s WALL (    1373 calls)
     add_vuspsi   :      0.34s CPU      0.39s WALL (    1373 calls)
     hs_1psi      :      5.09s CPU      5.39s WALL (    1269 calls)
     s_1psi       :      0.61s CPU      0.69s WALL (    1269 calls)

     General routines
     calbec       :      0.63s CPU      0.73s WALL (    2786 calls)
     fft          :      0.67s CPU      0.70s WALL (      90 calls)
     ffts         :      0.04s CPU      0.04s WALL (      27 calls)
     fftw         :      5.10s CPU      5.31s WALL (    3850 calls)
     interpolate  :      0.15s CPU      0.16s WALL (      14 calls)
 
     Parallel routines
 
     PWSCF        :     41.09s CPU     45.38s WALL

 
   This run was terminated on:  16:41:52  14Feb2022            

=------------------------------------------------------------------------------=
   JOB DONE.
=------------------------------------------------------------------------------=
