
     Program PWSCF v.7.0 starts on 14Feb2022 at 16:33:14 

     This program is part of the open-source Quantum ESPRESSO suite
     for quantum simulation of materials; please cite
         "P. Giannozzi et al., J. Phys.:Condens. Matter 21 395502 (2009);
         "P. Giannozzi et al., J. Phys.:Condens. Matter 29 465901 (2017);
         "P. Giannozzi et al., J. Chem. Phys. 152 154105 (2020);
          URL http://www.quantum-espresso.org", 
     in publications or presentations arising from this work. More details at
     http://www.quantum-espresso.org/quote

     Parallel version (MPI), running on     1 processors

     MPI processes distributed on     1 nodes
     87567 MiB available memory on the printing compute node when the environment starts
 
     Waiting for input...
     Reading input from standard input
Warning: card &CELL ignored
Warning: card  CELL_DYNAMICS = 'BFGS', ignored
Warning: card  PRESS=0.1D0, ignored
Warning: card / ignored

     Current dimensions of program PWSCF are:
     Max number of different atomic species (ntypx) = 10
     Max number of k-points (npk) =  40000
     Max angular momentum in pseudopotentials (lmaxx) =  4

     Subspace diagonalization in iterative solution of the eigenvalue problem:
     a serial algorithm will be used

 
     G-vector sticks info
     --------------------
     sticks:   dense  smooth     PW     G-vecs:    dense   smooth      PW
     Sum        1003     337    109                20875     4015     749
 
     Using Slab Decomposition
 


     bravais-lattice index     =            2
     lattice parameter (alat)  =       9.0000  a.u.
     unit-cell volume          =     182.2500 (a.u.)^3
     number of atoms/cell      =            2
     number of atomic types    =            2
     number of electrons       =         8.00
     number of Kohn-Sham states=            4
     kinetic-energy cutoff     =      30.0000  Ry
     charge density cutoff     =     360.0000  Ry
     scf convergence threshold =      1.0E-08
     mixing beta               =       0.7000
     number of iterations used =            8  plain     mixing
     Exchange-correlation= SLA  PZ   NOGX NOGC
                           (   1   1   0   0   0   0   0)

     celldm(1)=   9.000000  celldm(2)=   0.000000  celldm(3)=   0.000000
     celldm(4)=   0.000000  celldm(5)=   0.000000  celldm(6)=   0.000000

     crystal axes: (cart. coord. in units of alat)
               a(1) = (  -0.500000   0.000000   0.500000 )  
               a(2) = (   0.000000   0.500000   0.500000 )  
               a(3) = (  -0.500000   0.500000   0.000000 )  

     reciprocal axes: (cart. coord. in units 2 pi/alat)
               b(1) = ( -1.000000 -1.000000  1.000000 )  
               b(2) = (  1.000000  1.000000  1.000000 )  
               b(3) = ( -1.000000  1.000000 -1.000000 )  


     PseudoPot. # 1 for B  read from file:
     ./pseudo_dir/B_LDA.UPF
     MD5 check sum: a9970de764dbc07c3a3d9583c605c3b2
     Pseudo is Ultrasoft + core correction, Zval =  3.0
     Generated by new atomic code, or converted to UPF format
     Using radial grid of  781 points,  4 beta functions with: 
                l(1) =   0
                l(2) =   0
                l(3) =   1
                l(4) =   1
     Q(r) pseudized with  8 coefficients,  rinner =    1.100   1.100   1.100


     PseudoPot. # 2 for As read from file:
     ./pseudo_dir/As_LDA.UPF
     MD5 check sum: 6d2e8cbe4ed9d0db7c6ef7a361cc050d
     Pseudo is Ultrasoft + core correction, Zval =  5.0
     Generated by new atomic code, or converted to UPF format
     Using radial grid of  875 points,  6 beta functions with: 
                l(1) =   0
                l(2) =   0
                l(3) =   1
                l(4) =   1
                l(5) =   2
                l(6) =   2
     Q(r) pseudized with  8 coefficients,  rinner =    1.300   1.300   1.300
                                                       1.300   1.300

     atomic species   valence    mass     pseudopotential
        B              3.00    10.81100     B ( 1.00)
        As             5.00    74.92160     As( 1.00)

     24 Sym. Ops. (no inversion) found



   Cartesian axes

     site n.     atom                  positions (alat units)
         1           B   tau(   1) = (   0.0000000   0.0000000   0.0000000  )
         2           As  tau(   2) = (  -0.2500000   0.2500000   0.2500000  )

     number of k points=     8
                       cart. coord. in units 2pi/alat
        k(    1) = (   0.0000000   0.0000000   0.0000000), wk =   0.0312500
        k(    2) = (  -0.2500000   0.2500000  -0.2500000), wk =   0.2500000
        k(    3) = (   0.5000000  -0.5000000   0.5000000), wk =   0.1250000
        k(    4) = (   0.0000000   0.5000000   0.0000000), wk =   0.1875000
        k(    5) = (   0.7500000  -0.2500000   0.7500000), wk =   0.7500000
        k(    6) = (   0.5000000   0.0000000   0.5000000), wk =   0.3750000
        k(    7) = (   0.0000000  -1.0000000   0.0000000), wk =   0.0937500
        k(    8) = (  -0.5000000  -1.0000000   0.0000000), wk =   0.1875000

     Dense  grid:    20875 G-vectors     FFT dimensions: (  40,  40,  40)

     Smooth grid:     4015 G-vectors     FFT dimensions: (  24,  24,  24)

     Estimated max dynamical RAM per process >      81.13 MB

     Initial potential from superposition of free atoms

     starting charge       7.9996, renormalised to       8.0000
     Starting wfcs are    8 randomized atomic wfcs

     total cpu time spent up to now is        3.2 secs

     Self-consistent Calculation

     iteration #  1     ecut=    30.00 Ry     beta= 0.70
     CG style diagonalization
     ethr =  1.00E-02,  avg # of iterations =  2.6

     total cpu time spent up to now is        3.7 secs

     total energy              =     -46.13564951 Ry
     estimated scf accuracy    <       0.15087706 Ry

     iteration #  2     ecut=    30.00 Ry     beta= 0.70
     CG style diagonalization
     ethr =  1.89E-03,  avg # of iterations =  4.2

     total cpu time spent up to now is        4.2 secs

     total energy              =     -46.16839412 Ry
     estimated scf accuracy    <       0.04077511 Ry

     iteration #  3     ecut=    30.00 Ry     beta= 0.70
     CG style diagonalization
     ethr =  5.10E-04,  avg # of iterations =  4.2

     total cpu time spent up to now is        4.6 secs

     total energy              =     -46.17700973 Ry
     estimated scf accuracy    <       0.00049379 Ry

     iteration #  4     ecut=    30.00 Ry     beta= 0.70
     CG style diagonalization
     ethr =  6.17E-06,  avg # of iterations =  4.0

     total cpu time spent up to now is        5.1 secs

     total energy              =     -46.17722902 Ry
     estimated scf accuracy    <       0.00003337 Ry

     iteration #  5     ecut=    30.00 Ry     beta= 0.70
     CG style diagonalization
     ethr =  4.17E-07,  avg # of iterations =  4.1

     total cpu time spent up to now is        5.6 secs

     total energy              =     -46.17723786 Ry
     estimated scf accuracy    <       0.00000007 Ry

     iteration #  6     ecut=    30.00 Ry     beta= 0.70
     CG style diagonalization
     ethr =  9.01E-10,  avg # of iterations =  6.3

     total cpu time spent up to now is        6.2 secs

     total energy              =     -46.17723830 Ry
     estimated scf accuracy    <       0.00000005 Ry

     iteration #  7     ecut=    30.00 Ry     beta= 0.70
     CG style diagonalization
     ethr =  6.29E-10,  avg # of iterations =  4.2

     total cpu time spent up to now is        6.7 secs

     End of self-consistent calculation

          k = 0.0000 0.0000 0.0000 (   531 PWs)   bands (ev):

    -6.9613   8.5329   8.5329   8.5329

          k =-0.2500 0.2500-0.2500 (   510 PWs)   bands (ev):

    -5.9544   3.5643   7.3754   7.3754

          k = 0.5000-0.5000 0.5000 (   502 PWs)   bands (ev):

    -4.0745  -0.3089   6.7036   6.7036

          k = 0.0000 0.5000 0.0000 (   504 PWs)   bands (ev):

    -5.6089   4.4572   5.7986   5.7986

          k = 0.7500-0.2500 0.7500 (   504 PWs)   bands (ev):

    -3.6742   0.8080   3.7478   5.3260

          k = 0.5000 0.0000 0.5000 (   512 PWs)   bands (ev):

    -4.4301   1.8842   3.3757   6.5493

          k = 0.0000-1.0000 0.0000 (   492 PWs)   bands (ev):

    -2.7860   0.0452   4.4152   4.4152

          k =-0.5000-1.0000 0.0000 (   516 PWs)   bands (ev):

    -2.6185   0.5449   2.9519   3.2459

     highest occupied level (ev):     8.5329

!    total energy              =     -46.17723831 Ry
     estimated scf accuracy    <          5.8E-10 Ry

     The total energy is the sum of the following terms:
     one-electron contribution =       6.72185960 Ry
     hartree contribution      =       1.25769775 Ry
     xc contribution           =     -34.16308570 Ry
     ewald contribution        =     -19.99370996 Ry

     convergence has been achieved in   7 iterations

     Forces acting on atoms (cartesian axes, Ry/au):

     atom    1 type  1   force =    -0.00000000   -0.00000000    0.00000000
     atom    2 type  2   force =     0.00000000    0.00000000   -0.00000000

     Total force =     0.000000     Total SCF correction =     0.000000


     Computing stress (Cartesian axis) and pressure

          total   stress  (Ry/bohr**3)                   (kbar)     P=      -12.88
  -0.00008754   0.00000000   0.00000000          -12.88        0.00        0.00
   0.00000000  -0.00008754   0.00000000            0.00      -12.88        0.00
   0.00000000   0.00000000  -0.00008754            0.00        0.00      -12.88


     Writing all to output data dir ./BAs_30.save/
 
     init_run     :      1.54s CPU      1.78s WALL (       1 calls)
     electrons    :      3.10s CPU      3.52s WALL (       1 calls)
     forces       :      0.17s CPU      0.20s WALL (       1 calls)
     stress       :      1.50s CPU      1.59s WALL (       1 calls)

     Called by init_run:
     wfcinit      :      0.07s CPU      0.13s WALL (       1 calls)
     potinit      :      0.03s CPU      0.05s WALL (       1 calls)
     hinit0       :      1.30s CPU      1.39s WALL (       1 calls)

     Called by electrons:
     c_bands      :      0.99s CPU      1.12s WALL (       7 calls)
     sum_band     :      1.17s CPU      1.28s WALL (       7 calls)
     v_of_rho     :      0.13s CPU      0.14s WALL (       8 calls)
     newd         :      0.87s CPU      1.01s WALL (       8 calls)
     mix_rho      :      0.03s CPU      0.03s WALL (       7 calls)

     Called by c_bands:
     init_us_2    :      0.09s CPU      0.10s WALL (     136 calls)
     init_us_2:cp :      0.08s CPU      0.10s WALL (     136 calls)
     ccgdiagg     :      0.78s CPU      0.87s WALL (      56 calls)
     wfcrot       :      0.22s CPU      0.28s WALL (      56 calls)

     Called by *cgdiagg:
     h_psi        :      0.77s CPU      0.87s WALL (     813 calls)
     s_psi        :      0.06s CPU      0.07s WALL (    1570 calls)

     Called by h_psi:
     h_psi:calbec :      0.06s CPU      0.08s WALL (     813 calls)
     vloc_psi     :      0.64s CPU      0.70s WALL (     813 calls)
     add_vuspsi   :      0.04s CPU      0.04s WALL (     813 calls)
     hs_1psi      :      0.66s CPU      0.73s WALL (     757 calls)
     s_1psi       :      0.08s CPU      0.09s WALL (     757 calls)

     General routines
     calbec       :      0.08s CPU      0.10s WALL (    1666 calls)
     fft          :      0.08s CPU      0.11s WALL (      54 calls)
     ffts         :      0.01s CPU      0.01s WALL (      15 calls)
     fftw         :      0.61s CPU      0.67s WALL (    2250 calls)
     interpolate  :      0.02s CPU      0.02s WALL (       8 calls)
 
     Parallel routines
 
     PWSCF        :      7.09s CPU      8.92s WALL

 
   This run was terminated on:  16:33:23  14Feb2022            

=------------------------------------------------------------------------------=
   JOB DONE.
=------------------------------------------------------------------------------=
