
     Program PWSCF v.7.0 starts on 14Feb2022 at 16:38:25 

     This program is part of the open-source Quantum ESPRESSO suite
     for quantum simulation of materials; please cite
         "P. Giannozzi et al., J. Phys.:Condens. Matter 21 395502 (2009);
         "P. Giannozzi et al., J. Phys.:Condens. Matter 29 465901 (2017);
         "P. Giannozzi et al., J. Chem. Phys. 152 154105 (2020);
          URL http://www.quantum-espresso.org", 
     in publications or presentations arising from this work. More details at
     http://www.quantum-espresso.org/quote

     Parallel version (MPI), running on     1 processors

     MPI processes distributed on     1 nodes
     89486 MiB available memory on the printing compute node when the environment starts
 
     Waiting for input...
     Reading input from standard input
Warning: card &CELL ignored
Warning: card  CELL_DYNAMICS = 'BFGS', ignored
Warning: card  PRESS=0.1D0, ignored
Warning: card / ignored

     Current dimensions of program PWSCF are:
     Max number of different atomic species (ntypx) = 10
     Max number of k-points (npk) =  40000
     Max angular momentum in pseudopotentials (lmaxx) =  4

     Subspace diagonalization in iterative solution of the eigenvalue problem:
     a serial algorithm will be used

 
     G-vector sticks info
     --------------------
     sticks:   dense  smooth     PW     G-vecs:    dense   smooth      PW
     Sum        2347     769    241                75089    14331    2397
 
     Using Slab Decomposition
 


     bravais-lattice index     =            2
     lattice parameter (alat)  =       9.0000  a.u.
     unit-cell volume          =     182.2500 (a.u.)^3
     number of atoms/cell      =            2
     number of atomic types    =            2
     number of electrons       =         8.00
     number of Kohn-Sham states=            4
     kinetic-energy cutoff     =      70.0000  Ry
     charge density cutoff     =     840.0000  Ry
     scf convergence threshold =      1.0E-08
     mixing beta               =       0.7000
     number of iterations used =            8  plain     mixing
     Exchange-correlation= SLA  PZ   NOGX NOGC
                           (   1   1   0   0   0   0   0)

     celldm(1)=   9.000000  celldm(2)=   0.000000  celldm(3)=   0.000000
     celldm(4)=   0.000000  celldm(5)=   0.000000  celldm(6)=   0.000000

     crystal axes: (cart. coord. in units of alat)
               a(1) = (  -0.500000   0.000000   0.500000 )  
               a(2) = (   0.000000   0.500000   0.500000 )  
               a(3) = (  -0.500000   0.500000   0.000000 )  

     reciprocal axes: (cart. coord. in units 2 pi/alat)
               b(1) = ( -1.000000 -1.000000  1.000000 )  
               b(2) = (  1.000000  1.000000  1.000000 )  
               b(3) = ( -1.000000  1.000000 -1.000000 )  


     PseudoPot. # 1 for B  read from file:
     ./pseudo_dir/B_LDA.UPF
     MD5 check sum: a9970de764dbc07c3a3d9583c605c3b2
     Pseudo is Ultrasoft + core correction, Zval =  3.0
     Generated by new atomic code, or converted to UPF format
     Using radial grid of  781 points,  4 beta functions with: 
                l(1) =   0
                l(2) =   0
                l(3) =   1
                l(4) =   1
     Q(r) pseudized with  8 coefficients,  rinner =    1.100   1.100   1.100


     PseudoPot. # 2 for As read from file:
     ./pseudo_dir/As_LDA.UPF
     MD5 check sum: 6d2e8cbe4ed9d0db7c6ef7a361cc050d
     Pseudo is Ultrasoft + core correction, Zval =  5.0
     Generated by new atomic code, or converted to UPF format
     Using radial grid of  875 points,  6 beta functions with: 
                l(1) =   0
                l(2) =   0
                l(3) =   1
                l(4) =   1
                l(5) =   2
                l(6) =   2
     Q(r) pseudized with  8 coefficients,  rinner =    1.300   1.300   1.300
                                                       1.300   1.300

     atomic species   valence    mass     pseudopotential
        B              3.00    10.81100     B ( 1.00)
        As             5.00    74.92160     As( 1.00)

     24 Sym. Ops. (no inversion) found



   Cartesian axes

     site n.     atom                  positions (alat units)
         1           B   tau(   1) = (   0.0000000   0.0000000   0.0000000  )
         2           As  tau(   2) = (  -0.2500000   0.2500000   0.2500000  )

     number of k points=     8
                       cart. coord. in units 2pi/alat
        k(    1) = (   0.0000000   0.0000000   0.0000000), wk =   0.0312500
        k(    2) = (  -0.2500000   0.2500000  -0.2500000), wk =   0.2500000
        k(    3) = (   0.5000000  -0.5000000   0.5000000), wk =   0.1250000
        k(    4) = (   0.0000000   0.5000000   0.0000000), wk =   0.1875000
        k(    5) = (   0.7500000  -0.2500000   0.7500000), wk =   0.7500000
        k(    6) = (   0.5000000   0.0000000   0.5000000), wk =   0.3750000
        k(    7) = (   0.0000000  -1.0000000   0.0000000), wk =   0.0937500
        k(    8) = (  -0.5000000  -1.0000000   0.0000000), wk =   0.1875000

     Dense  grid:    75089 G-vectors     FFT dimensions: (  60,  60,  60)

     Smooth grid:    14331 G-vectors     FFT dimensions: (  36,  36,  36)

     Estimated max dynamical RAM per process >     284.54 MB

     Initial potential from superposition of free atoms

     starting charge       7.9996, renormalised to       8.0000
     Starting wfcs are    8 randomized atomic wfcs

     total cpu time spent up to now is        4.5 secs

     Self-consistent Calculation

     iteration #  1     ecut=    70.00 Ry     beta= 0.70
     CG style diagonalization
     ethr =  1.00E-02,  avg # of iterations =  2.6

     total cpu time spent up to now is        6.0 secs

     total energy              =     -46.13670054 Ry
     estimated scf accuracy    <       0.15271044 Ry

     iteration #  2     ecut=    70.00 Ry     beta= 0.70
     CG style diagonalization
     ethr =  1.91E-03,  avg # of iterations =  4.3

     total cpu time spent up to now is        7.8 secs

     total energy              =     -46.17021411 Ry
     estimated scf accuracy    <       0.04077559 Ry

     iteration #  3     ecut=    70.00 Ry     beta= 0.70
     CG style diagonalization
     ethr =  5.10E-04,  avg # of iterations =  4.2

     total cpu time spent up to now is        9.4 secs

     total energy              =     -46.17920173 Ry
     estimated scf accuracy    <       0.00046638 Ry

     iteration #  4     ecut=    70.00 Ry     beta= 0.70
     CG style diagonalization
     ethr =  5.83E-06,  avg # of iterations =  4.8

     total cpu time spent up to now is       11.2 secs

     total energy              =     -46.17954870 Ry
     estimated scf accuracy    <       0.00011739 Ry

     iteration #  5     ecut=    70.00 Ry     beta= 0.70
     CG style diagonalization
     ethr =  1.47E-06,  avg # of iterations =  4.2

     total cpu time spent up to now is       12.9 secs

     total energy              =     -46.17958253 Ry
     estimated scf accuracy    <       0.00000884 Ry

     iteration #  6     ecut=    70.00 Ry     beta= 0.70
     CG style diagonalization
     ethr =  1.11E-07,  avg # of iterations =  5.6

     total cpu time spent up to now is       14.7 secs

     total energy              =     -46.17959209 Ry
     estimated scf accuracy    <       0.00000166 Ry

     iteration #  7     ecut=    70.00 Ry     beta= 0.70
     CG style diagonalization
     ethr =  2.08E-08,  avg # of iterations =  3.8

     total cpu time spent up to now is       16.3 secs

     total energy              =     -46.17959211 Ry
     estimated scf accuracy    <       0.00000089 Ry

     iteration #  8     ecut=    70.00 Ry     beta= 0.70
     CG style diagonalization
     ethr =  1.11E-08,  avg # of iterations =  3.7

     total cpu time spent up to now is       18.0 secs

     total energy              =     -46.17959835 Ry
     estimated scf accuracy    <       0.00000024 Ry

     iteration #  9     ecut=    70.00 Ry     beta= 0.70
     CG style diagonalization
     ethr =  3.05E-09,  avg # of iterations =  6.2

     total cpu time spent up to now is       19.9 secs

     total energy              =     -46.17959653 Ry
     estimated scf accuracy    <       0.00004344 Ry

     iteration # 10     ecut=    70.00 Ry     beta= 0.70
     CG style diagonalization
     ethr =  3.05E-09,  avg # of iterations =  5.3

     total cpu time spent up to now is       21.7 secs

     total energy              =     -46.17958930 Ry
     estimated scf accuracy    <       0.00001686 Ry

     iteration # 11     ecut=    70.00 Ry     beta= 0.70
     CG style diagonalization
     ethr =  3.05E-09,  avg # of iterations =  5.4

     total cpu time spent up to now is       23.7 secs

     total energy              =     -46.17959220 Ry
     estimated scf accuracy    <       0.00000005 Ry

     iteration # 12     ecut=    70.00 Ry     beta= 0.70
     CG style diagonalization
     ethr =  5.87E-10,  avg # of iterations =  4.6

     total cpu time spent up to now is       25.5 secs

     total energy              =     -46.17959212 Ry
     estimated scf accuracy    <       0.00000036 Ry

     iteration # 13     ecut=    70.00 Ry     beta= 0.70
     CG style diagonalization
     ethr =  5.87E-10,  avg # of iterations =  4.2

     total cpu time spent up to now is       27.2 secs

     total energy              =     -46.17959209 Ry
     estimated scf accuracy    <       0.00000008 Ry

     iteration # 14     ecut=    70.00 Ry     beta= 0.70
     CG style diagonalization
     ethr =  5.87E-10,  avg # of iterations =  4.4

     total cpu time spent up to now is       28.9 secs

     total energy              =     -46.17959211 Ry
     estimated scf accuracy    <       0.00000002 Ry

     iteration # 15     ecut=    70.00 Ry     beta= 0.70
     CG style diagonalization
     ethr =  1.94E-10,  avg # of iterations =  3.6

     total cpu time spent up to now is       30.5 secs

     End of self-consistent calculation

          k = 0.0000 0.0000 0.0000 (  1807 PWs)   bands (ev):

    -6.9635   8.5279   8.5279   8.5279

          k =-0.2500 0.2500-0.2500 (  1811 PWs)   bands (ev):

    -5.9572   3.5596   7.3698   7.3698

          k = 0.5000-0.5000 0.5000 (  1802 PWs)   bands (ev):

    -4.0790  -0.3115   6.6976   6.6976

          k = 0.0000 0.5000 0.0000 (  1812 PWs)   bands (ev):

    -5.6118   4.4518   5.7933   5.7933

          k = 0.7500-0.2500 0.7500 (  1796 PWs)   bands (ev):

    -3.6786   0.8048   3.7433   5.3210

          k = 0.5000 0.0000 0.5000 (  1812 PWs)   bands (ev):

    -4.4338   1.8804   3.3715   6.5441

          k = 0.0000-1.0000 0.0000 (  1772 PWs)   bands (ev):

    -2.7917   0.0427   4.4100   4.4100

          k =-0.5000-1.0000 0.0000 (  1800 PWs)   bands (ev):

    -2.6241   0.5430   2.9485   3.2419

     highest occupied level (ev):     8.5279

!    total energy              =     -46.17959211 Ry
     estimated scf accuracy    <          1.6E-09 Ry

     The total energy is the sum of the following terms:
     one-electron contribution =       6.71252602 Ry
     hartree contribution      =       1.25758537 Ry
     xc contribution           =     -34.15599355 Ry
     ewald contribution        =     -19.99370996 Ry

     convergence has been achieved in  15 iterations

     Forces acting on atoms (cartesian axes, Ry/au):

     atom    1 type  1   force =     0.00000000    0.00000000   -0.00000000
     atom    2 type  2   force =     0.00000000    0.00000000    0.00000000

     Total force =     0.000000     Total SCF correction =     0.000000


     Computing stress (Cartesian axis) and pressure

          total   stress  (Ry/bohr**3)                   (kbar)     P=       -7.90
  -0.00005370  -0.00000000  -0.00000000           -7.90       -0.00       -0.00
  -0.00000000  -0.00005370  -0.00000000           -0.00       -7.90       -0.00
  -0.00000000  -0.00000000  -0.00005370           -0.00       -0.00       -7.90


     Writing all to output data dir ./BAs_70.save/
 
     init_run     :      2.74s CPU      3.05s WALL (       1 calls)
     electrons    :     23.81s CPU     26.14s WALL (       1 calls)
     forces       :      0.63s CPU      0.69s WALL (       1 calls)
     stress       :      5.36s CPU      5.56s WALL (       1 calls)

     Called by init_run:
     wfcinit      :      0.22s CPU      0.29s WALL (       1 calls)
     potinit      :      0.09s CPU      0.11s WALL (       1 calls)
     hinit0       :      1.87s CPU      1.97s WALL (       1 calls)

     Called by electrons:
     c_bands      :      7.57s CPU      8.06s WALL (      15 calls)
     sum_band     :      8.98s CPU      9.79s WALL (      15 calls)
     v_of_rho     :      0.90s CPU      0.99s WALL (      16 calls)
     newd         :      6.38s CPU      7.25s WALL (      16 calls)
     mix_rho      :      0.26s CPU      0.27s WALL (      15 calls)

     Called by c_bands:
     init_us_2    :      0.62s CPU      0.65s WALL (     264 calls)
     init_us_2:cp :      0.62s CPU      0.64s WALL (     264 calls)
     ccgdiagg     :      5.92s CPU      6.32s WALL (     120 calls)
     wfcrot       :      1.49s CPU      1.61s WALL (     120 calls)

     Called by *cgdiagg:
     h_psi        :      6.23s CPU      6.55s WALL (    1815 calls)
     s_psi        :      0.47s CPU      0.56s WALL (    3510 calls)

     Called by h_psi:
     h_psi:calbec :      0.35s CPU      0.39s WALL (    1815 calls)
     vloc_psi     :      5.47s CPU      5.72s WALL (    1815 calls)
     add_vuspsi   :      0.28s CPU      0.32s WALL (    1815 calls)
     hs_1psi      :      5.20s CPU      5.48s WALL (    1695 calls)
     s_1psi       :      0.52s CPU      0.59s WALL (    1695 calls)

     General routines
     calbec       :      0.56s CPU      0.65s WALL (    3670 calls)
     fft          :      0.50s CPU      0.53s WALL (     102 calls)
     ffts         :      0.04s CPU      0.04s WALL (      31 calls)
     fftw         :      5.10s CPU      5.31s WALL (    4894 calls)
     interpolate  :      0.12s CPU      0.18s WALL (      16 calls)
 
     Parallel routines
 
     PWSCF        :     33.35s CPU     37.25s WALL

 
   This run was terminated on:  16:39: 2  14Feb2022            

=------------------------------------------------------------------------------=
   JOB DONE.
=------------------------------------------------------------------------------=
