
     Program PWSCF v.7.0 starts on 19Feb2022 at 18:26:31 

     This program is part of the open-source Quantum ESPRESSO suite
     for quantum simulation of materials; please cite
         "P. Giannozzi et al., J. Phys.:Condens. Matter 21 395502 (2009);
         "P. Giannozzi et al., J. Phys.:Condens. Matter 29 465901 (2017);
         "P. Giannozzi et al., J. Chem. Phys. 152 154105 (2020);
          URL http://www.quantum-espresso.org", 
     in publications or presentations arising from this work. More details at
     http://www.quantum-espresso.org/quote

     Parallel version (MPI), running on     1 processors

     MPI processes distributed on     1 nodes
     88518 MiB available memory on the printing compute node when the environment starts
 
     Waiting for input...
     Reading input from standard input
Warning: card &CELL ignored
Warning: card  CELL_DYNAMICS = 'BFGS', ignored
Warning: card  PRESS=0.1D0, ignored
Warning: card / ignored

     Current dimensions of program PWSCF are:
     Max number of different atomic species (ntypx) = 10
     Max number of k-points (npk) =  40000
     Max angular momentum in pseudopotentials (lmaxx) =  4

     Subspace diagonalization in iterative solution of the eigenvalue problem:
     a serial algorithm will be used

 
     G-vector sticks info
     --------------------
     sticks:   dense  smooth     PW     G-vecs:    dense   smooth      PW
     Sum        1345     439    139                32455     6231    1067
 
     Using Slab Decomposition
 


     bravais-lattice index     =            2
     lattice parameter (alat)  =       9.0000  a.u.
     unit-cell volume          =     182.2500 (a.u.)^3
     number of atoms/cell      =            2
     number of atomic types    =            2
     number of electrons       =         8.00
     number of Kohn-Sham states=            4
     kinetic-energy cutoff     =      40.0000  Ry
     charge density cutoff     =     480.0000  Ry
     scf convergence threshold =      1.0E-08
     mixing beta               =       0.7000
     number of iterations used =            8  plain     mixing
     Exchange-correlation= SLA  PZ   NOGX NOGC
                           (   1   1   0   0   0   0   0)

     celldm(1)=   9.000000  celldm(2)=   0.000000  celldm(3)=   0.000000
     celldm(4)=   0.000000  celldm(5)=   0.000000  celldm(6)=   0.000000

     crystal axes: (cart. coord. in units of alat)
               a(1) = (  -0.500000   0.000000   0.500000 )  
               a(2) = (   0.000000   0.500000   0.500000 )  
               a(3) = (  -0.500000   0.500000   0.000000 )  

     reciprocal axes: (cart. coord. in units 2 pi/alat)
               b(1) = ( -1.000000 -1.000000  1.000000 )  
               b(2) = (  1.000000  1.000000  1.000000 )  
               b(3) = ( -1.000000  1.000000 -1.000000 )  


     PseudoPot. # 1 for B  read from file:
     ./pseudo_dir/B_LDA.UPF
     MD5 check sum: a9970de764dbc07c3a3d9583c605c3b2
     Pseudo is Ultrasoft + core correction, Zval =  3.0
     Generated by new atomic code, or converted to UPF format
     Using radial grid of  781 points,  4 beta functions with: 
                l(1) =   0
                l(2) =   0
                l(3) =   1
                l(4) =   1
     Q(r) pseudized with  8 coefficients,  rinner =    1.100   1.100   1.100


     PseudoPot. # 2 for As read from file:
     ./pseudo_dir/As_LDA.UPF
     MD5 check sum: 6d2e8cbe4ed9d0db7c6ef7a361cc050d
     Pseudo is Ultrasoft + core correction, Zval =  5.0
     Generated by new atomic code, or converted to UPF format
     Using radial grid of  875 points,  6 beta functions with: 
                l(1) =   0
                l(2) =   0
                l(3) =   1
                l(4) =   1
                l(5) =   2
                l(6) =   2
     Q(r) pseudized with  8 coefficients,  rinner =    1.300   1.300   1.300
                                                       1.300   1.300

     atomic species   valence    mass     pseudopotential
        B              3.00    10.81100     B ( 1.00)
        As             5.00    74.92160     As( 1.00)

      2 Sym. Ops. (no inversion) found



   Cartesian axes

     site n.     atom                  positions (alat units)
         1           B   tau(   1) = (   0.0000000   0.0000000   0.0000000  )
         2           As  tau(   2) = (  -0.2750000   0.2750000   0.2500000  )

     number of k points=     6
                       cart. coord. in units 2pi/alat
        k(    1) = (   0.0000000   0.0000000   0.0000000), wk =   0.2500000
        k(    2) = (   0.5000000  -0.5000000   0.5000000), wk =   0.2500000
        k(    3) = (   0.0000000  -1.0000000   0.0000000), wk =   0.5000000
        k(    4) = (  -0.5000000  -0.5000000  -0.5000000), wk =   0.5000000
        k(    5) = (   0.5000000  -0.5000000  -0.5000000), wk =   0.2500000
        k(    6) = (   0.0000000   0.0000000  -1.0000000), wk =   0.2500000

     Dense  grid:    32455 G-vectors     FFT dimensions: (  45,  45,  45)

     Smooth grid:     6231 G-vectors     FFT dimensions: (  25,  25,  25)

     Estimated max dynamical RAM per process >     124.24 MB

     Initial potential from superposition of free atoms

     starting charge       7.9996, renormalised to       8.0000
     Starting wfcs are    8 randomized atomic wfcs

     total cpu time spent up to now is        3.5 secs

     Self-consistent Calculation

     iteration #  1     ecut=    40.00 Ry     beta= 0.70
     CG style diagonalization
     ethr =  1.00E-02,  avg # of iterations =  2.6

     total cpu time spent up to now is        4.1 secs

     total energy              =     -45.87583866 Ry
     estimated scf accuracy    <       0.25341932 Ry

     iteration #  2     ecut=    40.00 Ry     beta= 0.70
     CG style diagonalization
     ethr =  3.17E-03,  avg # of iterations =  4.4

     total cpu time spent up to now is        4.8 secs

     total energy              =     -45.91977724 Ry
     estimated scf accuracy    <       0.13777731 Ry

     iteration #  3     ecut=    40.00 Ry     beta= 0.70
     CG style diagonalization
     ethr =  1.72E-03,  avg # of iterations =  4.1

     total cpu time spent up to now is        5.4 secs

     total energy              =     -45.94940506 Ry
     estimated scf accuracy    <       0.00245717 Ry

     iteration #  4     ecut=    40.00 Ry     beta= 0.70
     CG style diagonalization
     ethr =  3.07E-05,  avg # of iterations =  4.3

     total cpu time spent up to now is        6.0 secs

     total energy              =     -45.95069824 Ry
     estimated scf accuracy    <       0.00027970 Ry

     iteration #  5     ecut=    40.00 Ry     beta= 0.70
     CG style diagonalization
     ethr =  3.50E-06,  avg # of iterations =  4.0

     total cpu time spent up to now is        6.6 secs

     total energy              =     -45.95079485 Ry
     estimated scf accuracy    <       0.00001187 Ry

     iteration #  6     ecut=    40.00 Ry     beta= 0.70
     CG style diagonalization
     ethr =  1.48E-07,  avg # of iterations =  4.8

     total cpu time spent up to now is        7.3 secs

     total energy              =     -45.95080045 Ry
     estimated scf accuracy    <       0.00000171 Ry

     iteration #  7     ecut=    40.00 Ry     beta= 0.70
     CG style diagonalization
     ethr =  2.13E-08,  avg # of iterations =  4.2

     total cpu time spent up to now is        7.9 secs

     total energy              =     -45.95080117 Ry
     estimated scf accuracy    <       0.00000005 Ry

     iteration #  8     ecut=    40.00 Ry     beta= 0.70
     CG style diagonalization
     ethr =  5.66E-10,  avg # of iterations =  5.8

     total cpu time spent up to now is        8.6 secs

     End of self-consistent calculation

          k = 0.0000 0.0000 0.0000 (   749 PWs)   bands (ev):

    -6.8220   7.6579   8.8945  10.0561

          k = 0.5000-0.5000 0.5000 (   778 PWs)   bands (ev):

    -3.7675  -0.6335   6.6574   7.4580

          k = 0.0000-1.0000 0.0000 (   790 PWs)   bands (ev):

    -2.6980   0.2902   4.3831   4.8683

          k =-0.5000-0.5000-0.5000 (   778 PWs)   bands (ev):

    -3.9468  -0.1373   6.2441   7.7823

          k = 0.5000-0.5000-0.5000 (   778 PWs)   bands (ev):

    -4.0921   0.3240   6.3470   7.3205

          k = 0.0000 0.0000-1.0000 (   790 PWs)   bands (ev):

    -2.6801   0.1931   4.6061   4.7859

     highest occupied level (ev):    10.0561

!    total energy              =     -45.95080124 Ry
     estimated scf accuracy    <          3.5E-09 Ry

     The total energy is the sum of the following terms:
     one-electron contribution =       6.83667635 Ry
     hartree contribution      =       1.40520117 Ry
     xc contribution           =     -34.23400157 Ry
     ewald contribution        =     -19.95867719 Ry

     convergence has been achieved in   8 iterations

     Forces acting on atoms (cartesian axes, Ry/au):

     atom    1 type  1   force =    -0.11023381    0.11023381   -0.02853826
     atom    2 type  2   force =     0.11023381   -0.11023381    0.02853826

     Total force =     0.224131     Total SCF correction =     0.000006


     Computing stress (Cartesian axis) and pressure

          total   stress  (Ry/bohr**3)                   (kbar)     P=      130.03
   0.00083766  -0.00012550   0.00053407          123.22      -18.46       78.56
  -0.00012550   0.00083766  -0.00053407          -18.46      123.22      -78.56
   0.00053407  -0.00053407   0.00097655           78.56      -78.56      143.66


     Writing all to output data dir ./c_k2.save/
 
     init_run     :      1.73s CPU      2.01s WALL (       1 calls)
     electrons    :      4.55s CPU      5.10s WALL (       1 calls)
     forces       :      0.26s CPU      0.29s WALL (       1 calls)
     stress       :      2.16s CPU      2.28s WALL (       1 calls)

     Called by init_run:
     wfcinit      :      0.06s CPU      0.16s WALL (       1 calls)
     potinit      :      0.04s CPU      0.06s WALL (       1 calls)
     hinit0       :      1.42s CPU      1.50s WALL (       1 calls)

     Called by electrons:
     c_bands      :      1.03s CPU      1.17s WALL (       8 calls)
     sum_band     :      1.92s CPU      2.11s WALL (       8 calls)
     v_of_rho     :      0.21s CPU      0.21s WALL (       9 calls)
     newd         :      1.47s CPU      1.67s WALL (       9 calls)
     mix_rho      :      0.05s CPU      0.06s WALL (       8 calls)

     Called by c_bands:
     init_us_2    :      0.11s CPU      0.12s WALL (     114 calls)
     init_us_2:cp :      0.11s CPU      0.12s WALL (     114 calls)
     ccgdiagg     :      0.80s CPU      0.90s WALL (      48 calls)
     wfcrot       :      0.22s CPU      0.29s WALL (      48 calls)

     Called by *cgdiagg:
     h_psi        :      0.80s CPU      0.91s WALL (     700 calls)
     s_psi        :      0.07s CPU      0.07s WALL (    1352 calls)

     Called by h_psi:
     h_psi:calbec :      0.06s CPU      0.10s WALL (     700 calls)
     vloc_psi     :      0.66s CPU      0.73s WALL (     700 calls)
     add_vuspsi   :      0.04s CPU      0.05s WALL (     700 calls)
     hs_1psi      :      0.68s CPU      0.76s WALL (     652 calls)
     s_1psi       :      0.08s CPU      0.09s WALL (     652 calls)

     General routines
     calbec       :      0.09s CPU      0.13s WALL (    1430 calls)
     fft          :      0.14s CPU      0.17s WALL (      60 calls)
     ffts         :      0.01s CPU      0.01s WALL (      17 calls)
     fftw         :      0.63s CPU      0.69s WALL (    1928 calls)
     interpolate  :      0.03s CPU      0.04s WALL (       9 calls)
 
     Parallel routines
 
     PWSCF        :      9.49s CPU     11.60s WALL

 
   This run was terminated on:  18:26:42  19Feb2022            

=------------------------------------------------------------------------------=
   JOB DONE.
=------------------------------------------------------------------------------=
