
     Program PWSCF v.7.0 starts on 19Feb2022 at 18:28:29 

     This program is part of the open-source Quantum ESPRESSO suite
     for quantum simulation of materials; please cite
         "P. Giannozzi et al., J. Phys.:Condens. Matter 21 395502 (2009);
         "P. Giannozzi et al., J. Phys.:Condens. Matter 29 465901 (2017);
         "P. Giannozzi et al., J. Chem. Phys. 152 154105 (2020);
          URL http://www.quantum-espresso.org", 
     in publications or presentations arising from this work. More details at
     http://www.quantum-espresso.org/quote

     Parallel version (MPI), running on     1 processors

     MPI processes distributed on     1 nodes
     88512 MiB available memory on the printing compute node when the environment starts
 
     Waiting for input...
     Reading input from standard input
Warning: card &CELL ignored
Warning: card  CELL_DYNAMICS = 'BFGS', ignored
Warning: card  PRESS=0.1D0, ignored
Warning: card / ignored

     Current dimensions of program PWSCF are:
     Max number of different atomic species (ntypx) = 10
     Max number of k-points (npk) =  40000
     Max angular momentum in pseudopotentials (lmaxx) =  4

     Subspace diagonalization in iterative solution of the eigenvalue problem:
     a serial algorithm will be used

 
     G-vector sticks info
     --------------------
     sticks:   dense  smooth     PW     G-vecs:    dense   smooth      PW
     Sum        1345     439    139                32455     6231    1067
 
     Using Slab Decomposition
 


     bravais-lattice index     =            2
     lattice parameter (alat)  =       9.0000  a.u.
     unit-cell volume          =     182.2500 (a.u.)^3
     number of atoms/cell      =            2
     number of atomic types    =            2
     number of electrons       =         8.00
     number of Kohn-Sham states=            4
     kinetic-energy cutoff     =      40.0000  Ry
     charge density cutoff     =     480.0000  Ry
     scf convergence threshold =      1.0E-08
     mixing beta               =       0.7000
     number of iterations used =            8  plain     mixing
     Exchange-correlation= SLA  PZ   NOGX NOGC
                           (   1   1   0   0   0   0   0)

     celldm(1)=   9.000000  celldm(2)=   0.000000  celldm(3)=   0.000000
     celldm(4)=   0.000000  celldm(5)=   0.000000  celldm(6)=   0.000000

     crystal axes: (cart. coord. in units of alat)
               a(1) = (  -0.500000   0.000000   0.500000 )  
               a(2) = (   0.000000   0.500000   0.500000 )  
               a(3) = (  -0.500000   0.500000   0.000000 )  

     reciprocal axes: (cart. coord. in units 2 pi/alat)
               b(1) = ( -1.000000 -1.000000  1.000000 )  
               b(2) = (  1.000000  1.000000  1.000000 )  
               b(3) = ( -1.000000  1.000000 -1.000000 )  


     PseudoPot. # 1 for B  read from file:
     ./pseudo_dir/B_LDA.UPF
     MD5 check sum: a9970de764dbc07c3a3d9583c605c3b2
     Pseudo is Ultrasoft + core correction, Zval =  3.0
     Generated by new atomic code, or converted to UPF format
     Using radial grid of  781 points,  4 beta functions with: 
                l(1) =   0
                l(2) =   0
                l(3) =   1
                l(4) =   1
     Q(r) pseudized with  8 coefficients,  rinner =    1.100   1.100   1.100


     PseudoPot. # 2 for As read from file:
     ./pseudo_dir/As_LDA.UPF
     MD5 check sum: 6d2e8cbe4ed9d0db7c6ef7a361cc050d
     Pseudo is Ultrasoft + core correction, Zval =  5.0
     Generated by new atomic code, or converted to UPF format
     Using radial grid of  875 points,  6 beta functions with: 
                l(1) =   0
                l(2) =   0
                l(3) =   1
                l(4) =   1
                l(5) =   2
                l(6) =   2
     Q(r) pseudized with  8 coefficients,  rinner =    1.300   1.300   1.300
                                                       1.300   1.300

     atomic species   valence    mass     pseudopotential
        B              3.00    10.81100     B ( 1.00)
        As             5.00    74.92160     As( 1.00)

      2 Sym. Ops. (no inversion) found



   Cartesian axes

     site n.     atom                  positions (alat units)
         1           B   tau(   1) = (   0.0000000   0.0000000   0.0000000  )
         2           As  tau(   2) = (  -0.2750000   0.2750000   0.2500000  )

     number of k points=    24
                       cart. coord. in units 2pi/alat
        k(    1) = (   0.0000000   0.0000000   0.0000000), wk =   0.0312500
        k(    2) = (  -0.2500000   0.2500000  -0.2500000), wk =   0.0625000
        k(    3) = (   0.5000000  -0.5000000   0.5000000), wk =   0.0312500
        k(    4) = (   0.0000000   0.5000000   0.0000000), wk =   0.1250000
        k(    5) = (   0.7500000  -0.2500000   0.7500000), wk =   0.1250000
        k(    6) = (   0.5000000   0.0000000   0.5000000), wk =   0.1250000
        k(    7) = (   0.0000000  -1.0000000   0.0000000), wk =   0.0625000
        k(    8) = (  -0.5000000  -1.0000000   0.0000000), wk =   0.1250000
        k(    9) = (   0.2500000   0.2500000   0.2500000), wk =   0.1250000
        k(   10) = (  -0.2500000   0.2500000   0.2500000), wk =   0.0625000
        k(   11) = (  -0.5000000  -0.5000000  -0.5000000), wk =   0.0625000
        k(   12) = (   0.5000000  -0.5000000  -0.5000000), wk =   0.0312500
        k(   13) = (   0.0000000   0.0000000   0.5000000), wk =   0.0625000
        k(   14) = (  -0.7500000  -0.2500000  -0.7500000), wk =   0.1250000
        k(   15) = (   0.7500000   0.2500000  -0.7500000), wk =   0.1250000
        k(   16) = (   0.2500000  -0.7500000  -0.7500000), wk =   0.1250000
        k(   17) = (  -0.7500000   0.7500000  -0.2500000), wk =   0.0625000
        k(   18) = (  -0.7500000  -0.7500000   0.2500000), wk =   0.1250000
        k(   19) = (   0.7500000  -0.7500000  -0.2500000), wk =   0.0625000
        k(   20) = (   0.5000000   0.0000000  -0.5000000), wk =   0.1250000
        k(   21) = (  -0.5000000   0.5000000   0.0000000), wk =   0.0625000
        k(   22) = (  -0.5000000  -0.5000000   0.0000000), wk =   0.0625000
        k(   23) = (   0.0000000   0.0000000  -1.0000000), wk =   0.0312500
        k(   24) = (   0.0000000   1.0000000  -0.5000000), wk =   0.0625000

     Dense  grid:    32455 G-vectors     FFT dimensions: (  45,  45,  45)

     Smooth grid:     6231 G-vectors     FFT dimensions: (  25,  25,  25)

     Estimated max dynamical RAM per process >     125.10 MB

     Initial potential from superposition of free atoms

     starting charge       7.9996, renormalised to       8.0000
     Starting wfcs are    8 randomized atomic wfcs

     total cpu time spent up to now is        3.5 secs

     Self-consistent Calculation

     iteration #  1     ecut=    40.00 Ry     beta= 0.70
     CG style diagonalization
     ethr =  1.00E-02,  avg # of iterations =  2.7

     total cpu time spent up to now is        4.5 secs

     total energy              =     -46.11509839 Ry
     estimated scf accuracy    <       0.15794754 Ry

     iteration #  2     ecut=    40.00 Ry     beta= 0.70
     CG style diagonalization
     ethr =  1.97E-03,  avg # of iterations =  4.2

     total cpu time spent up to now is        5.6 secs

     total energy              =     -46.14976388 Ry
     estimated scf accuracy    <       0.04811056 Ry

     iteration #  3     ecut=    40.00 Ry     beta= 0.70
     CG style diagonalization
     ethr =  6.01E-04,  avg # of iterations =  4.1

     total cpu time spent up to now is        6.6 secs

     total energy              =     -46.16021017 Ry
     estimated scf accuracy    <       0.00050078 Ry

     iteration #  4     ecut=    40.00 Ry     beta= 0.70
     CG style diagonalization
     ethr =  6.26E-06,  avg # of iterations =  4.4

     total cpu time spent up to now is        7.7 secs

     total energy              =     -46.16051311 Ry
     estimated scf accuracy    <       0.00007627 Ry

     iteration #  5     ecut=    40.00 Ry     beta= 0.70
     CG style diagonalization
     ethr =  9.53E-07,  avg # of iterations =  4.0

     total cpu time spent up to now is        8.8 secs

     total energy              =     -46.16053105 Ry
     estimated scf accuracy    <       0.00000042 Ry

     iteration #  6     ecut=    40.00 Ry     beta= 0.70
     CG style diagonalization
     ethr =  5.31E-09,  avg # of iterations =  6.8

     total cpu time spent up to now is       10.2 secs

     total energy              =     -46.16053372 Ry
     estimated scf accuracy    <       0.00000006 Ry

     iteration #  7     ecut=    40.00 Ry     beta= 0.70
     CG style diagonalization
     ethr =  7.45E-10,  avg # of iterations =  3.4

     total cpu time spent up to now is       11.2 secs

     total energy              =     -46.16053372 Ry
     estimated scf accuracy    <       0.00000001 Ry

     iteration #  8     ecut=    40.00 Ry     beta= 0.70
     CG style diagonalization
     ethr =  1.49E-10,  avg # of iterations =  3.6

     total cpu time spent up to now is       12.2 secs

     End of self-consistent calculation

          k = 0.0000 0.0000 0.0000 (   749 PWs)   bands (ev):

    -6.9955   7.3691   8.5938   9.7395

          k =-0.2500 0.2500-0.2500 (   784 PWs)   bands (ev):

    -5.9740   3.0696   7.1764   7.9614

          k = 0.5000-0.5000 0.5000 (   778 PWs)   bands (ev):

    -3.9632  -0.8160   6.4049   7.2060

          k = 0.0000 0.5000 0.0000 (   769 PWs)   bands (ev):

    -5.6527   4.2511   5.5667   6.1627

          k = 0.7500-0.2500 0.7500 (   777 PWs)   bands (ev):

    -3.6502   0.3807   3.7628   5.6075

          k = 0.5000 0.0000 0.5000 (   784 PWs)   bands (ev):

    -4.4343   1.4309   3.3801   7.0153

          k = 0.0000-1.0000 0.0000 (   790 PWs)   bands (ev):

    -2.8937   0.0637   4.1662   4.6627

          k =-0.5000-1.0000 0.0000 (   772 PWs)   bands (ev):

    -2.7250   0.5118   2.8518   3.4059

          k = 0.2500 0.2500 0.2500 (   784 PWs)   bands (ev):

    -5.9956   3.4984   6.6563   8.1746

          k =-0.2500 0.2500 0.2500 (   784 PWs)   bands (ev):

    -6.0169   3.9352   6.6544   7.6258

          k =-0.5000-0.5000-0.5000 (   778 PWs)   bands (ev):

    -4.1443  -0.3107   5.9851   7.5194

          k = 0.5000-0.5000-0.5000 (   778 PWs)   bands (ev):

    -4.2914   0.1605   6.0834   7.0519

          k = 0.0000 0.0000 0.5000 (   769 PWs)   bands (ev):

    -5.6529   4.0830   5.7884   6.1776

          k =-0.7500-0.2500-0.7500 (   777 PWs)   bands (ev):

    -3.7560   0.9511   3.2141   5.6958

          k = 0.7500 0.2500-0.7500 (   777 PWs)   bands (ev):

    -3.7418   0.6795   4.1796   5.0253

          k = 0.2500-0.7500-0.7500 (   777 PWs)   bands (ev):

    -3.8357   1.2123   3.6514   5.0832

          k =-0.7500 0.7500-0.2500 (   777 PWs)   bands (ev):

    -3.6389   0.2527   4.2838   5.2282

          k =-0.7500-0.7500 0.2500 (   777 PWs)   bands (ev):

    -3.7464   0.7667   3.6100   5.5604

          k = 0.7500-0.7500-0.2500 (   777 PWs)   bands (ev):

    -3.8397   1.3580   3.1812   5.3964

          k = 0.5000 0.0000-0.5000 (   784 PWs)   bands (ev):

    -4.5398   2.2592   3.3458   6.1174

          k =-0.5000 0.5000 0.0000 (   784 PWs)   bands (ev):

    -4.4880   1.7641   3.4369   6.5432

          k =-0.5000-0.5000 0.0000 (   784 PWs)   bands (ev):

    -4.4889   1.9067   3.1903   6.7562

          k = 0.0000 0.0000-1.0000 (   790 PWs)   bands (ev):

    -2.8763  -0.0322   4.3957   4.5730

          k = 0.0000 1.0000-0.5000 (   772 PWs)   bands (ev):

    -2.7338   0.5923   2.7193   3.4505

     highest occupied level (ev):     9.7395

!    total energy              =     -46.16053372 Ry
     estimated scf accuracy    <          9.8E-11 Ry

     The total energy is the sum of the following terms:
     one-electron contribution =       6.69894762 Ry
     hartree contribution      =       1.26403813 Ry
     xc contribution           =     -34.16484227 Ry
     ewald contribution        =     -19.95867719 Ry

     convergence has been achieved in   8 iterations

     Forces acting on atoms (cartesian axes, Ry/au):

     atom    1 type  1   force =    -0.08138957    0.08138957   -0.02723960
     atom    2 type  2   force =     0.08138957   -0.08138957    0.02723960

     Total force =     0.167275     Total SCF correction =     0.000005


     Computing stress (Cartesian axis) and pressure

          total   stress  (Ry/bohr**3)                   (kbar)     P=       12.59
   0.00005524  -0.00016585   0.00035877            8.13      -24.40       52.78
  -0.00016585   0.00005524  -0.00035877          -24.40        8.13      -52.78
   0.00035877  -0.00035877   0.00014630           52.78      -52.78       21.52


     Writing all to output data dir ./c_k4.save/
 
     init_run     :      1.92s CPU      2.14s WALL (       1 calls)
     electrons    :      7.85s CPU      8.71s WALL (       1 calls)
     forces       :      0.29s CPU      0.32s WALL (       1 calls)
     stress       :      2.39s CPU      2.51s WALL (       1 calls)

     Called by init_run:
     wfcinit      :      0.23s CPU      0.29s WALL (       1 calls)
     potinit      :      0.04s CPU      0.06s WALL (       1 calls)
     hinit0       :      1.42s CPU      1.51s WALL (       1 calls)

     Called by electrons:
     c_bands      :      3.91s CPU      4.35s WALL (       8 calls)
     sum_band     :      2.33s CPU      2.53s WALL (       8 calls)
     v_of_rho     :      0.21s CPU      0.22s WALL (       9 calls)
     newd         :      1.49s CPU      1.67s WALL (       9 calls)
     mix_rho      :      0.05s CPU      0.06s WALL (       8 calls)

     Called by c_bands:
     init_us_2    :      0.43s CPU      0.47s WALL (     456 calls)
     init_us_2:cp :      0.42s CPU      0.46s WALL (     456 calls)
     ccgdiagg     :      3.03s CPU      3.35s WALL (     192 calls)
     wfcrot       :      0.83s CPU      0.93s WALL (     192 calls)

     Called by *cgdiagg:
     h_psi        :      3.08s CPU      3.36s WALL (    2708 calls)
     s_psi        :      0.23s CPU      0.25s WALL (    5224 calls)

     Called by h_psi:
     h_psi:calbec :      0.22s CPU      0.26s WALL (    2708 calls)
     vloc_psi     :      2.57s CPU      2.80s WALL (    2708 calls)
     add_vuspsi   :      0.15s CPU      0.16s WALL (    2708 calls)
     hs_1psi      :      2.59s CPU      2.84s WALL (    2516 calls)
     s_1psi       :      0.29s CPU      0.32s WALL (    2516 calls)

     General routines
     calbec       :      0.32s CPU      0.37s WALL (    5536 calls)
     fft          :      0.15s CPU      0.18s WALL (      60 calls)
     ffts         :      0.01s CPU      0.01s WALL (      17 calls)
     fftw         :      2.47s CPU      2.67s WALL (    7528 calls)
     interpolate  :      0.03s CPU      0.04s WALL (       9 calls)
 
     Parallel routines
 
     PWSCF        :     13.26s CPU     15.58s WALL

 
   This run was terminated on:  18:28:45  19Feb2022            

=------------------------------------------------------------------------------=
   JOB DONE.
=------------------------------------------------------------------------------=
