
     Program PWSCF v.7.0 starts on 19Feb2022 at 18:30:57 

     This program is part of the open-source Quantum ESPRESSO suite
     for quantum simulation of materials; please cite
         "P. Giannozzi et al., J. Phys.:Condens. Matter 21 395502 (2009);
         "P. Giannozzi et al., J. Phys.:Condens. Matter 29 465901 (2017);
         "P. Giannozzi et al., J. Chem. Phys. 152 154105 (2020);
          URL http://www.quantum-espresso.org", 
     in publications or presentations arising from this work. More details at
     http://www.quantum-espresso.org/quote

     Parallel version (MPI), running on     1 processors

     MPI processes distributed on     1 nodes
     90010 MiB available memory on the printing compute node when the environment starts
 
     Waiting for input...
     Reading input from standard input
Warning: card &CELL ignored
Warning: card  CELL_DYNAMICS = 'BFGS', ignored
Warning: card  PRESS=0.1D0, ignored
Warning: card / ignored

     Current dimensions of program PWSCF are:
     Max number of different atomic species (ntypx) = 10
     Max number of k-points (npk) =  40000
     Max angular momentum in pseudopotentials (lmaxx) =  4

     Subspace diagonalization in iterative solution of the eigenvalue problem:
     a serial algorithm will be used

 
     G-vector sticks info
     --------------------
     sticks:   dense  smooth     PW     G-vecs:    dense   smooth      PW
     Sum        1345     439    151                32455     6231    1139
 
     Using Slab Decomposition
 


     bravais-lattice index     =            2
     lattice parameter (alat)  =       9.0000  a.u.
     unit-cell volume          =     182.2500 (a.u.)^3
     number of atoms/cell      =            2
     number of atomic types    =            2
     number of electrons       =         8.00
     number of Kohn-Sham states=            4
     kinetic-energy cutoff     =      40.0000  Ry
     charge density cutoff     =     480.0000  Ry
     scf convergence threshold =      1.0E-08
     mixing beta               =       0.7000
     number of iterations used =            8  plain     mixing
     Exchange-correlation= SLA  PZ   NOGX NOGC
                           (   1   1   0   0   0   0   0)

     celldm(1)=   9.000000  celldm(2)=   0.000000  celldm(3)=   0.000000
     celldm(4)=   0.000000  celldm(5)=   0.000000  celldm(6)=   0.000000

     crystal axes: (cart. coord. in units of alat)
               a(1) = (  -0.500000   0.000000   0.500000 )  
               a(2) = (   0.000000   0.500000   0.500000 )  
               a(3) = (  -0.500000   0.500000   0.000000 )  

     reciprocal axes: (cart. coord. in units 2 pi/alat)
               b(1) = ( -1.000000 -1.000000  1.000000 )  
               b(2) = (  1.000000  1.000000  1.000000 )  
               b(3) = ( -1.000000  1.000000 -1.000000 )  


     PseudoPot. # 1 for B  read from file:
     ./pseudo_dir/B_LDA.UPF
     MD5 check sum: a9970de764dbc07c3a3d9583c605c3b2
     Pseudo is Ultrasoft + core correction, Zval =  3.0
     Generated by new atomic code, or converted to UPF format
     Using radial grid of  781 points,  4 beta functions with: 
                l(1) =   0
                l(2) =   0
                l(3) =   1
                l(4) =   1
     Q(r) pseudized with  8 coefficients,  rinner =    1.100   1.100   1.100


     PseudoPot. # 2 for As read from file:
     ./pseudo_dir/As_LDA.UPF
     MD5 check sum: 6d2e8cbe4ed9d0db7c6ef7a361cc050d
     Pseudo is Ultrasoft + core correction, Zval =  5.0
     Generated by new atomic code, or converted to UPF format
     Using radial grid of  875 points,  6 beta functions with: 
                l(1) =   0
                l(2) =   0
                l(3) =   1
                l(4) =   1
                l(5) =   2
                l(6) =   2
     Q(r) pseudized with  8 coefficients,  rinner =    1.300   1.300   1.300
                                                       1.300   1.300

     atomic species   valence    mass     pseudopotential
        B              3.00    10.81100     B ( 1.00)
        As             5.00    74.92160     As( 1.00)

      2 Sym. Ops. (no inversion) found



   Cartesian axes

     site n.     atom                  positions (alat units)
         1           B   tau(   1) = (   0.0000000   0.0000000   0.0000000  )
         2           As  tau(   2) = (  -0.2750000   0.2750000   0.2500000  )

     number of k points=    39
                       cart. coord. in units 2pi/alat
        k(    1) = (   0.0000000   0.0000000   0.0000000), wk =   0.0160000
        k(    2) = (  -0.2000000   0.2000000  -0.2000000), wk =   0.0320000
        k(    3) = (  -0.4000000   0.4000000  -0.4000000), wk =   0.0320000
        k(    4) = (   0.0000000   0.4000000   0.0000000), wk =   0.0640000
        k(    5) = (  -0.2000000   0.6000000  -0.2000000), wk =   0.0640000
        k(    6) = (   0.6000000  -0.2000000   0.6000000), wk =   0.0640000
        k(    7) = (   0.4000000   0.0000000   0.4000000), wk =   0.0640000
        k(    8) = (   0.0000000   0.8000000   0.0000000), wk =   0.0640000
        k(    9) = (   0.8000000   0.0000000   0.8000000), wk =   0.0640000
        k(   10) = (   0.6000000  -0.2000000   1.0000000), wk =   0.0640000
        k(   11) = (   0.2000000   0.2000000   0.2000000), wk =   0.0640000
        k(   12) = (  -0.2000000   0.2000000   0.2000000), wk =   0.0320000
        k(   13) = (   0.4000000   0.4000000   0.4000000), wk =   0.0640000
        k(   14) = (  -0.4000000   0.4000000   0.4000000), wk =   0.0320000
        k(   15) = (   0.0000000   0.0000000   0.4000000), wk =   0.0320000
        k(   16) = (   0.2000000   0.6000000   0.2000000), wk =   0.0640000
        k(   17) = (  -0.2000000  -0.6000000   0.2000000), wk =   0.0640000
        k(   18) = (  -0.6000000   0.2000000   0.2000000), wk =   0.0640000
        k(   19) = (   0.2000000  -0.2000000   0.6000000), wk =   0.0320000
        k(   20) = (   0.2000000   0.2000000  -0.6000000), wk =   0.0640000
        k(   21) = (  -0.2000000   0.2000000   0.6000000), wk =   0.0320000
        k(   22) = (  -0.6000000  -0.2000000  -0.6000000), wk =   0.0640000
        k(   23) = (   0.6000000   0.2000000  -0.6000000), wk =   0.0640000
        k(   24) = (   0.2000000  -0.6000000  -0.6000000), wk =   0.0640000
        k(   25) = (  -0.6000000   0.6000000  -0.2000000), wk =   0.0320000
        k(   26) = (  -0.6000000  -0.6000000   0.2000000), wk =   0.0640000
        k(   27) = (   0.6000000  -0.6000000  -0.2000000), wk =   0.0320000
        k(   28) = (   0.4000000  -0.0000000  -0.4000000), wk =   0.0640000
        k(   29) = (  -0.4000000   0.4000000   0.0000000), wk =   0.0320000
        k(   30) = (  -0.4000000  -0.4000000  -0.0000000), wk =   0.0320000
        k(   31) = (   0.0000000   0.0000000   0.8000000), wk =   0.0320000
        k(   32) = (   0.8000000  -0.0000000  -0.8000000), wk =   0.0640000
        k(   33) = (  -0.8000000   0.8000000   0.0000000), wk =   0.0320000
        k(   34) = (  -0.8000000  -0.8000000  -0.0000000), wk =   0.0320000
        k(   35) = (  -0.6000000  -0.2000000  -1.0000000), wk =   0.0640000
        k(   36) = (   1.0000000   0.2000000   0.6000000), wk =   0.0640000
        k(   37) = (  -1.0000000   0.2000000  -0.6000000), wk =   0.0640000
        k(   38) = (  -0.6000000   1.0000000  -0.2000000), wk =   0.0640000
        k(   39) = (  -0.6000000  -1.0000000   0.2000000), wk =   0.0640000

     Dense  grid:    32455 G-vectors     FFT dimensions: (  45,  45,  45)

     Smooth grid:     6231 G-vectors     FFT dimensions: (  25,  25,  25)

     Estimated max dynamical RAM per process >     125.81 MB

     Initial potential from superposition of free atoms

     starting charge       7.9996, renormalised to       8.0000
     Starting wfcs are    8 randomized atomic wfcs

     total cpu time spent up to now is        3.6 secs

     Self-consistent Calculation

     iteration #  1     ecut=    40.00 Ry     beta= 0.70
     CG style diagonalization
     ethr =  1.00E-02,  avg # of iterations =  2.7

     total cpu time spent up to now is        4.8 secs

     total energy              =     -46.12605390 Ry
     estimated scf accuracy    <       0.15227247 Ry

     iteration #  2     ecut=    40.00 Ry     beta= 0.70
     CG style diagonalization
     ethr =  1.90E-03,  avg # of iterations =  4.2

     total cpu time spent up to now is        6.3 secs

     total energy              =     -46.16021876 Ry
     estimated scf accuracy    <       0.04457497 Ry

     iteration #  3     ecut=    40.00 Ry     beta= 0.70
     CG style diagonalization
     ethr =  5.57E-04,  avg # of iterations =  4.1

     total cpu time spent up to now is        7.7 secs

     total energy              =     -46.16989418 Ry
     estimated scf accuracy    <       0.00044130 Ry

     iteration #  4     ecut=    40.00 Ry     beta= 0.70
     CG style diagonalization
     ethr =  5.52E-06,  avg # of iterations =  4.6

     total cpu time spent up to now is        9.3 secs

     total energy              =     -46.17018575 Ry
     estimated scf accuracy    <       0.00007238 Ry

     iteration #  5     ecut=    40.00 Ry     beta= 0.70
     CG style diagonalization
     ethr =  9.05E-07,  avg # of iterations =  4.1

     total cpu time spent up to now is       10.7 secs

     total energy              =     -46.17020290 Ry
     estimated scf accuracy    <       0.00000082 Ry

     iteration #  6     ecut=    40.00 Ry     beta= 0.70
     CG style diagonalization
     ethr =  1.02E-08,  avg # of iterations =  6.4

     total cpu time spent up to now is       12.6 secs

     total energy              =     -46.17020520 Ry
     estimated scf accuracy    <       0.00000008 Ry

     iteration #  7     ecut=    40.00 Ry     beta= 0.70
     CG style diagonalization
     ethr =  1.00E-09,  avg # of iterations =  4.1

     total cpu time spent up to now is       14.0 secs

     End of self-consistent calculation

          k = 0.0000 0.0000 0.0000 (   749 PWs)   bands (ev):

    -7.0107   7.3440   8.5681   9.7141

          k =-0.2000 0.2000-0.2000 (   794 PWs)   bands (ev):

    -6.3511   4.1701   7.4731   8.2722

          k =-0.4000 0.4000-0.4000 (   769 PWs)   bands (ev):

    -4.5875   0.0858   6.5093   7.3057

          k = 0.0000 0.4000 0.0000 (   785 PWs)   bands (ev):

    -6.1439   5.1834   6.1680   6.8049

          k =-0.2000 0.6000-0.2000 (   791 PWs)   bands (ev):

    -4.7107   1.5440   5.0103   5.9280

          k = 0.6000-0.2000 0.6000 (   775 PWs)   bands (ev):

    -3.5915  -0.2711   3.9341   6.3217

          k = 0.4000 0.0000 0.4000 (   789 PWs)   bands (ev):

    -5.3075   2.5281   4.4168   7.7934

          k = 0.0000 0.8000 0.0000 (   781 PWs)   bands (ev):

    -3.7943   1.1840   4.3722   4.8860

          k = 0.8000 0.0000 0.8000 (   764 PWs)   bands (ev):

    -2.8230   0.2199   2.5499   5.0622

          k = 0.6000-0.2000 1.0000 (   770 PWs)   bands (ev):

    -3.3418   0.8502   3.0219   4.2935

          k = 0.2000 0.2000 0.2000 (   794 PWs)   bands (ev):

    -6.3632   4.6313   6.9072   8.4422

          k =-0.2000 0.2000 0.2000 (   794 PWs)   bands (ev):

    -6.3753   5.1185   6.8598   7.8356

          k = 0.4000 0.4000 0.4000 (   769 PWs)   bands (ev):

    -4.6877   0.5228   6.0742   7.6016

          k =-0.4000 0.4000 0.4000 (   769 PWs)   bands (ev):

    -4.7778   0.9507   6.1568   7.1233

          k = 0.0000 0.0000 0.4000 (   785 PWs)   bands (ev):

    -6.1442   5.0018   6.3505   6.8768

          k = 0.2000 0.6000 0.2000 (   791 PWs)   bands (ev):

    -4.7647   2.1196   4.3644   6.0251

          k =-0.2000-0.6000 0.2000 (   791 PWs)   bands (ev):

    -4.7423   1.7777   5.1036   5.7202

          k =-0.6000 0.2000 0.2000 (   791 PWs)   bands (ev):

    -4.7944   2.3099   4.7872   5.4679

          k = 0.2000-0.2000 0.6000 (   791 PWs)   bands (ev):

    -4.6985   1.3947   5.4928   5.6655

          k = 0.2000 0.2000-0.6000 (   791 PWs)   bands (ev):

    -4.7531   1.8856   4.7318   5.9931

          k =-0.2000 0.2000 0.6000 (   791 PWs)   bands (ev):

    -4.8047   2.5064   4.3251   5.7054

          k =-0.6000-0.2000-0.6000 (   775 PWs)   bands (ev):

    -3.7250   0.2082   3.5208   6.4617

          k = 0.6000 0.2000-0.6000 (   775 PWs)   bands (ev):

    -3.7788   0.2729   4.2662   5.5855

          k = 0.2000-0.6000-0.6000 (   775 PWs)   bands (ev):

    -3.8858   0.7485   3.8203   5.6864

          k =-0.6000 0.6000-0.2000 (   775 PWs)   bands (ev):

    -3.6215  -0.2397   4.3338   5.8514

          k =-0.6000-0.6000 0.2000 (   775 PWs)   bands (ev):

    -3.7520   0.2455   3.7522   6.2258

          k = 0.6000-0.6000-0.2000 (   775 PWs)   bands (ev):

    -3.8610   0.7153   3.4605   6.1027

          k = 0.4000-0.0000-0.4000 (   789 PWs)   bands (ev):

    -5.3645   3.4112   4.3343   6.6967

          k =-0.4000 0.4000 0.0000 (   789 PWs)   bands (ev):

    -5.3364   2.8768   4.4557   7.2137

          k =-0.4000-0.4000-0.0000 (   789 PWs)   bands (ev):

    -5.3363   3.0518   4.1538   7.4534

          k = 0.0000 0.0000 0.8000 (   781 PWs)   bands (ev):

    -3.7896   1.0870   4.6056   4.8073

          k = 0.8000-0.0000-0.8000 (   764 PWs)   bands (ev):

    -2.9293   0.3921   3.0541   4.5102

          k =-0.8000 0.8000 0.0000 (   764 PWs)   bands (ev):

    -2.8633   0.1981   2.9218   4.7663

          k =-0.8000-0.8000-0.0000 (   764 PWs)   bands (ev):

    -2.8670   0.2431   2.7665   4.9501

          k =-0.6000-0.2000-1.0000 (   770 PWs)   bands (ev):

    -3.3443   0.9290   2.7976   4.4699

          k = 1.0000 0.2000 0.6000 (   770 PWs)   bands (ev):

    -3.4117   1.2639   2.9186   4.0167

          k =-1.0000 0.2000-0.6000 (   770 PWs)   bands (ev):

    -3.2730   0.6118   2.8833   4.6378

          k =-0.6000 1.0000-0.2000 (   770 PWs)   bands (ev):

    -3.2676   0.5494   2.9421   4.6611

          k =-0.6000-1.0000 0.2000 (   770 PWs)   bands (ev):

    -3.4074   1.1648   3.0483   4.0032

     highest occupied level (ev):     9.7141

!    total energy              =     -46.17020522 Ry
     estimated scf accuracy    <          7.6E-09 Ry

     The total energy is the sum of the following terms:
     one-electron contribution =       6.69549989 Ry
     hartree contribution      =       1.25226662 Ry
     xc contribution           =     -34.15929454 Ry
     ewald contribution        =     -19.95867719 Ry

     convergence has been achieved in   7 iterations

     Forces acting on atoms (cartesian axes, Ry/au):

     atom    1 type  1   force =    -0.07921524    0.07921524   -0.02702367
     atom    2 type  2   force =     0.07921524   -0.07921524    0.02702367

     Total force =     0.162975     Total SCF correction =     0.000013


     Computing stress (Cartesian axis) and pressure

          total   stress  (Ry/bohr**3)                   (kbar)     P=        8.04
   0.00002465  -0.00016273   0.00035957            3.63      -23.94       52.89
  -0.00016273   0.00002465  -0.00035957          -23.94        3.63      -52.89
   0.00035957  -0.00035957   0.00011462           52.89      -52.89       16.86


     Writing all to output data dir ./c_k5.save/
 
     init_run     :      2.05s CPU      2.29s WALL (       1 calls)
     electrons    :      9.51s CPU     10.49s WALL (       1 calls)
     forces       :      0.32s CPU      0.36s WALL (       1 calls)
     stress       :      2.61s CPU      2.72s WALL (       1 calls)

     Called by init_run:
     wfcinit      :      0.38s CPU      0.45s WALL (       1 calls)
     potinit      :      0.03s CPU      0.06s WALL (       1 calls)
     hinit0       :      1.42s CPU      1.51s WALL (       1 calls)

     Called by electrons:
     c_bands      :      5.80s CPU      6.34s WALL (       7 calls)
     sum_band     :      2.32s CPU      2.51s WALL (       7 calls)
     v_of_rho     :      0.18s CPU      0.19s WALL (       8 calls)
     newd         :      1.30s CPU      1.50s WALL (       8 calls)
     mix_rho      :      0.05s CPU      0.05s WALL (       7 calls)

     Called by c_bands:
     init_us_2    :      0.64s CPU      0.68s WALL (     663 calls)
     init_us_2:cp :      0.62s CPU      0.67s WALL (     663 calls)
     ccgdiagg     :      4.56s CPU      4.99s WALL (     273 calls)
     wfcrot       :      1.20s CPU      1.31s WALL (     273 calls)

     Called by *cgdiagg:
     h_psi        :      4.59s CPU      4.97s WALL (    4020 calls)
     s_psi        :      0.33s CPU      0.37s WALL (    7767 calls)

     Called by h_psi:
     h_psi:calbec :      0.34s CPU      0.38s WALL (    4020 calls)
     vloc_psi     :      3.82s CPU      4.13s WALL (    4020 calls)
     add_vuspsi   :      0.23s CPU      0.25s WALL (    4020 calls)
     hs_1psi      :      3.90s CPU      4.24s WALL (    3747 calls)
     s_1psi       :      0.43s CPU      0.47s WALL (    3747 calls)

     General routines
     calbec       :      0.49s CPU      0.55s WALL (    8235 calls)
     fft          :      0.13s CPU      0.16s WALL (      54 calls)
     ffts         :      0.01s CPU      0.01s WALL (      15 calls)
     fftw         :      3.64s CPU      3.92s WALL (   11082 calls)
     interpolate  :      0.03s CPU      0.03s WALL (       8 calls)
 
     Parallel routines
 
     PWSCF        :     15.31s CPU     17.83s WALL

 
   This run was terminated on:  18:31:14  19Feb2022            

=------------------------------------------------------------------------------=
   JOB DONE.
=------------------------------------------------------------------------------=
