
     Program PWSCF v.7.0 starts on 19Feb2022 at 18:34:16 

     This program is part of the open-source Quantum ESPRESSO suite
     for quantum simulation of materials; please cite
         "P. Giannozzi et al., J. Phys.:Condens. Matter 21 395502 (2009);
         "P. Giannozzi et al., J. Phys.:Condens. Matter 29 465901 (2017);
         "P. Giannozzi et al., J. Chem. Phys. 152 154105 (2020);
          URL http://www.quantum-espresso.org", 
     in publications or presentations arising from this work. More details at
     http://www.quantum-espresso.org/quote

     Parallel version (MPI), running on     1 processors

     MPI processes distributed on     1 nodes
     90010 MiB available memory on the printing compute node when the environment starts
 
     Waiting for input...
     Reading input from standard input
Warning: card &CELL ignored
Warning: card  CELL_DYNAMICS = 'BFGS', ignored
Warning: card  PRESS=0.1D0, ignored
Warning: card / ignored

     Current dimensions of program PWSCF are:
     Max number of different atomic species (ntypx) = 10
     Max number of k-points (npk) =  40000
     Max angular momentum in pseudopotentials (lmaxx) =  4

     Subspace diagonalization in iterative solution of the eigenvalue problem:
     a serial algorithm will be used

 
     G-vector sticks info
     --------------------
     sticks:   dense  smooth     PW     G-vecs:    dense   smooth      PW
     Sum        1345     439    151                32455     6231    1139
 
     Using Slab Decomposition
 


     bravais-lattice index     =            2
     lattice parameter (alat)  =       9.0000  a.u.
     unit-cell volume          =     182.2500 (a.u.)^3
     number of atoms/cell      =            2
     number of atomic types    =            2
     number of electrons       =         8.00
     number of Kohn-Sham states=            4
     kinetic-energy cutoff     =      40.0000  Ry
     charge density cutoff     =     480.0000  Ry
     scf convergence threshold =      1.0E-08
     mixing beta               =       0.7000
     number of iterations used =            8  plain     mixing
     Exchange-correlation= SLA  PZ   NOGX NOGC
                           (   1   1   0   0   0   0   0)

     celldm(1)=   9.000000  celldm(2)=   0.000000  celldm(3)=   0.000000
     celldm(4)=   0.000000  celldm(5)=   0.000000  celldm(6)=   0.000000

     crystal axes: (cart. coord. in units of alat)
               a(1) = (  -0.500000   0.000000   0.500000 )  
               a(2) = (   0.000000   0.500000   0.500000 )  
               a(3) = (  -0.500000   0.500000   0.000000 )  

     reciprocal axes: (cart. coord. in units 2 pi/alat)
               b(1) = ( -1.000000 -1.000000  1.000000 )  
               b(2) = (  1.000000  1.000000  1.000000 )  
               b(3) = ( -1.000000  1.000000 -1.000000 )  


     PseudoPot. # 1 for B  read from file:
     ./pseudo_dir/B_LDA.UPF
     MD5 check sum: a9970de764dbc07c3a3d9583c605c3b2
     Pseudo is Ultrasoft + core correction, Zval =  3.0
     Generated by new atomic code, or converted to UPF format
     Using radial grid of  781 points,  4 beta functions with: 
                l(1) =   0
                l(2) =   0
                l(3) =   1
                l(4) =   1
     Q(r) pseudized with  8 coefficients,  rinner =    1.100   1.100   1.100


     PseudoPot. # 2 for As read from file:
     ./pseudo_dir/As_LDA.UPF
     MD5 check sum: 6d2e8cbe4ed9d0db7c6ef7a361cc050d
     Pseudo is Ultrasoft + core correction, Zval =  5.0
     Generated by new atomic code, or converted to UPF format
     Using radial grid of  875 points,  6 beta functions with: 
                l(1) =   0
                l(2) =   0
                l(3) =   1
                l(4) =   1
                l(5) =   2
                l(6) =   2
     Q(r) pseudized with  8 coefficients,  rinner =    1.300   1.300   1.300
                                                       1.300   1.300

     atomic species   valence    mass     pseudopotential
        B              3.00    10.81100     B ( 1.00)
        As             5.00    74.92160     As( 1.00)

      2 Sym. Ops. (no inversion) found



   Cartesian axes

     site n.     atom                  positions (alat units)
         1           B   tau(   1) = (   0.0000000   0.0000000   0.0000000  )
         2           As  tau(   2) = (  -0.2750000   0.2750000   0.2500000  )

     number of k points=   100

     Number of k-points >= 100: set verbosity='high' to print them.

     Dense  grid:    32455 G-vectors     FFT dimensions: (  45,  45,  45)

     Smooth grid:     6231 G-vectors     FFT dimensions: (  25,  25,  25)

     Estimated max dynamical RAM per process >     128.71 MB

     Initial potential from superposition of free atoms

     starting charge       7.9996, renormalised to       8.0000
     Starting wfcs are    8 randomized atomic wfcs

     total cpu time spent up to now is        4.3 secs

     Self-consistent Calculation

     iteration #  1     ecut=    40.00 Ry     beta= 0.70
     CG style diagonalization
     ethr =  1.00E-02,  avg # of iterations =  2.7

     total cpu time spent up to now is        6.6 secs

     total energy              =     -46.13057921 Ry
     estimated scf accuracy    <       0.14997012 Ry

     iteration #  2     ecut=    40.00 Ry     beta= 0.70
     CG style diagonalization
     ethr =  1.87E-03,  avg # of iterations =  4.2

     total cpu time spent up to now is        9.6 secs

     total energy              =     -46.16456174 Ry
     estimated scf accuracy    <       0.04301282 Ry

     iteration #  3     ecut=    40.00 Ry     beta= 0.70
     CG style diagonalization
     ethr =  5.38E-04,  avg # of iterations =  4.1

     total cpu time spent up to now is       12.6 secs

     total energy              =     -46.17385702 Ry
     estimated scf accuracy    <       0.00039472 Ry

     iteration #  4     ecut=    40.00 Ry     beta= 0.70
     CG style diagonalization
     ethr =  4.93E-06,  avg # of iterations =  4.6

     total cpu time spent up to now is       15.8 secs

     total energy              =     -46.17414513 Ry
     estimated scf accuracy    <       0.00008363 Ry

     iteration #  5     ecut=    40.00 Ry     beta= 0.70
     CG style diagonalization
     ethr =  1.05E-06,  avg # of iterations =  4.0

     total cpu time spent up to now is       18.7 secs

     total energy              =     -46.17416501 Ry
     estimated scf accuracy    <       0.00000142 Ry

     iteration #  6     ecut=    40.00 Ry     beta= 0.70
     CG style diagonalization
     ethr =  1.78E-08,  avg # of iterations =  6.1

     total cpu time spent up to now is       22.7 secs

     total energy              =     -46.17416744 Ry
     estimated scf accuracy    <       0.00000005 Ry

     iteration #  7     ecut=    40.00 Ry     beta= 0.70
     CG style diagonalization
     ethr =  6.55E-10,  avg # of iterations =  4.7

     total cpu time spent up to now is       25.9 secs

     End of self-consistent calculation

     Number of k-points >= 100: set verbosity='high' to print the bands.

     highest occupied level (ev):     9.7007

!    total energy              =     -46.17416746 Ry
     estimated scf accuracy    <          9.2E-09 Ry

     The total energy is the sum of the following terms:
     one-electron contribution =       6.69501428 Ry
     hartree contribution      =       1.24581608 Ry
     xc contribution           =     -34.15632063 Ry
     ewald contribution        =     -19.95867719 Ry

     convergence has been achieved in   7 iterations

     Forces acting on atoms (cartesian axes, Ry/au):

     atom    1 type  1   force =    -0.07808856    0.07808856   -0.02685455
     atom    2 type  2   force =     0.07808856   -0.07808856    0.02685455

     Total force =     0.160728     Total SCF correction =     0.000012


     Computing stress (Cartesian axis) and pressure

          total   stress  (Ry/bohr**3)                   (kbar)     P=        6.49
   0.00001368  -0.00015782   0.00036555            2.01      -23.22       53.77
  -0.00015782   0.00001368  -0.00036555          -23.22        2.01      -53.77
   0.00036555  -0.00036555   0.00010507           53.77      -53.77       15.46


     Writing all to output data dir ./c_k7.save/
 
     init_run     :      2.65s CPU      2.94s WALL (       1 calls)
     electrons    :     19.88s CPU     21.72s WALL (       1 calls)
     forces       :      0.44s CPU      0.48s WALL (       1 calls)
     stress       :      3.41s CPU      3.51s WALL (       1 calls)

     Called by init_run:
     wfcinit      :      0.96s CPU      1.06s WALL (       1 calls)
     potinit      :      0.03s CPU      0.06s WALL (       1 calls)
     hinit0       :      1.41s CPU      1.51s WALL (       1 calls)

     Called by electrons:
     c_bands      :     14.94s CPU     16.33s WALL (       7 calls)
     sum_band     :      3.56s CPU      3.78s WALL (       7 calls)
     v_of_rho     :      0.19s CPU      0.20s WALL (       8 calls)
     newd         :      1.30s CPU      1.49s WALL (       8 calls)
     mix_rho      :      0.05s CPU      0.05s WALL (       7 calls)

     Called by c_bands:
     init_us_2    :      1.63s CPU      1.75s WALL (    1700 calls)
     init_us_2:cp :      1.60s CPU      1.72s WALL (    1700 calls)
     ccgdiagg     :     11.76s CPU     12.89s WALL (     700 calls)
     wfcrot       :      3.09s CPU      3.28s WALL (     700 calls)

     Called by *cgdiagg:
     h_psi        :     11.79s CPU     12.76s WALL (   10413 calls)
     s_psi        :      0.88s CPU      0.98s WALL (   20126 calls)

     Called by h_psi:
     h_psi:calbec :      0.88s CPU      0.95s WALL (   10413 calls)
     vloc_psi     :      9.82s CPU     10.63s WALL (   10413 calls)
     add_vuspsi   :      0.58s CPU      0.63s WALL (   10413 calls)
     hs_1psi      :     10.04s CPU     10.96s WALL (    9713 calls)
     s_1psi       :      1.13s CPU      1.24s WALL (    9713 calls)

     General routines
     calbec       :      1.27s CPU      1.41s WALL (   21326 calls)
     fft          :      0.13s CPU      0.16s WALL (      54 calls)
     ffts         :      0.01s CPU      0.01s WALL (      15 calls)
     fftw         :      9.38s CPU     10.11s WALL (   28626 calls)
     interpolate  :      0.03s CPU      0.03s WALL (       8 calls)
 
     Parallel routines
 
     PWSCF        :     27.25s CPU     31.23s WALL

 
   This run was terminated on:  18:34:47  19Feb2022            

=------------------------------------------------------------------------------=
   JOB DONE.
=------------------------------------------------------------------------------=
