
     Program PWSCF v.7.0 starts on 19Feb2022 at 18:35: 3 

     This program is part of the open-source Quantum ESPRESSO suite
     for quantum simulation of materials; please cite
         "P. Giannozzi et al., J. Phys.:Condens. Matter 21 395502 (2009);
         "P. Giannozzi et al., J. Phys.:Condens. Matter 29 465901 (2017);
         "P. Giannozzi et al., J. Chem. Phys. 152 154105 (2020);
          URL http://www.quantum-espresso.org", 
     in publications or presentations arising from this work. More details at
     http://www.quantum-espresso.org/quote

     Parallel version (MPI), running on     1 processors

     MPI processes distributed on     1 nodes
     89258 MiB available memory on the printing compute node when the environment starts
 
     Waiting for input...
     Reading input from standard input
Warning: card &CELL ignored
Warning: card  CELL_DYNAMICS = 'BFGS', ignored
Warning: card  PRESS=0.1D0, ignored
Warning: card / ignored

     Current dimensions of program PWSCF are:
     Max number of different atomic species (ntypx) = 10
     Max number of k-points (npk) =  40000
     Max angular momentum in pseudopotentials (lmaxx) =  4

     Subspace diagonalization in iterative solution of the eigenvalue problem:
     a serial algorithm will be used

 
     G-vector sticks info
     --------------------
     sticks:   dense  smooth     PW     G-vecs:    dense   smooth      PW
     Sum        1345     439    151                32455     6231    1139
 
     Using Slab Decomposition
 


     bravais-lattice index     =            2
     lattice parameter (alat)  =       9.0000  a.u.
     unit-cell volume          =     182.2500 (a.u.)^3
     number of atoms/cell      =            2
     number of atomic types    =            2
     number of electrons       =         8.00
     number of Kohn-Sham states=            4
     kinetic-energy cutoff     =      40.0000  Ry
     charge density cutoff     =     480.0000  Ry
     scf convergence threshold =      1.0E-08
     mixing beta               =       0.7000
     number of iterations used =            8  plain     mixing
     Exchange-correlation= SLA  PZ   NOGX NOGC
                           (   1   1   0   0   0   0   0)

     celldm(1)=   9.000000  celldm(2)=   0.000000  celldm(3)=   0.000000
     celldm(4)=   0.000000  celldm(5)=   0.000000  celldm(6)=   0.000000

     crystal axes: (cart. coord. in units of alat)
               a(1) = (  -0.500000   0.000000   0.500000 )  
               a(2) = (   0.000000   0.500000   0.500000 )  
               a(3) = (  -0.500000   0.500000   0.000000 )  

     reciprocal axes: (cart. coord. in units 2 pi/alat)
               b(1) = ( -1.000000 -1.000000  1.000000 )  
               b(2) = (  1.000000  1.000000  1.000000 )  
               b(3) = ( -1.000000  1.000000 -1.000000 )  


     PseudoPot. # 1 for B  read from file:
     ./pseudo_dir/B_LDA.UPF
     MD5 check sum: a9970de764dbc07c3a3d9583c605c3b2
     Pseudo is Ultrasoft + core correction, Zval =  3.0
     Generated by new atomic code, or converted to UPF format
     Using radial grid of  781 points,  4 beta functions with: 
                l(1) =   0
                l(2) =   0
                l(3) =   1
                l(4) =   1
     Q(r) pseudized with  8 coefficients,  rinner =    1.100   1.100   1.100


     PseudoPot. # 2 for As read from file:
     ./pseudo_dir/As_LDA.UPF
     MD5 check sum: 6d2e8cbe4ed9d0db7c6ef7a361cc050d
     Pseudo is Ultrasoft + core correction, Zval =  5.0
     Generated by new atomic code, or converted to UPF format
     Using radial grid of  875 points,  6 beta functions with: 
                l(1) =   0
                l(2) =   0
                l(3) =   1
                l(4) =   1
                l(5) =   2
                l(6) =   2
     Q(r) pseudized with  8 coefficients,  rinner =    1.300   1.300   1.300
                                                       1.300   1.300

     atomic species   valence    mass     pseudopotential
        B              3.00    10.81100     B ( 1.00)
        As             5.00    74.92160     As( 1.00)

      2 Sym. Ops. (no inversion) found



   Cartesian axes

     site n.     atom                  positions (alat units)
         1           B   tau(   1) = (   0.0000000   0.0000000   0.0000000  )
         2           As  tau(   2) = (  -0.2750000   0.2750000   0.2500000  )

     number of k points=   150

     Number of k-points >= 100: set verbosity='high' to print them.

     Dense  grid:    32455 G-vectors     FFT dimensions: (  45,  45,  45)

     Smooth grid:     6231 G-vectors     FFT dimensions: (  25,  25,  25)

     Estimated max dynamical RAM per process >     131.09 MB

     Initial potential from superposition of free atoms

     starting charge       7.9996, renormalised to       8.0000
     Starting wfcs are    8 randomized atomic wfcs

     total cpu time spent up to now is        4.8 secs

     Self-consistent Calculation

     iteration #  1     ecut=    40.00 Ry     beta= 0.70
     CG style diagonalization
     ethr =  1.00E-02,  avg # of iterations =  2.7

     total cpu time spent up to now is        8.1 secs

     total energy              =     -46.13099588 Ry
     estimated scf accuracy    <       0.14960730 Ry

     iteration #  2     ecut=    40.00 Ry     beta= 0.70
     CG style diagonalization
     ethr =  1.87E-03,  avg # of iterations =  4.2

     total cpu time spent up to now is       12.4 secs

     total energy              =     -46.16493568 Ry
     estimated scf accuracy    <       0.04290369 Ry

     iteration #  3     ecut=    40.00 Ry     beta= 0.70
     CG style diagonalization
     ethr =  5.36E-04,  avg # of iterations =  4.0

     total cpu time spent up to now is       16.5 secs

     total energy              =     -46.17420829 Ry
     estimated scf accuracy    <       0.00039626 Ry

     iteration #  4     ecut=    40.00 Ry     beta= 0.70
     CG style diagonalization
     ethr =  4.95E-06,  avg # of iterations =  4.6

     total cpu time spent up to now is       21.2 secs

     total energy              =     -46.17449495 Ry
     estimated scf accuracy    <       0.00007889 Ry

     iteration #  5     ecut=    40.00 Ry     beta= 0.70
     CG style diagonalization
     ethr =  9.86E-07,  avg # of iterations =  4.0

     total cpu time spent up to now is       25.3 secs

     total energy              =     -46.17451371 Ry
     estimated scf accuracy    <       0.00000125 Ry

     iteration #  6     ecut=    40.00 Ry     beta= 0.70
     CG style diagonalization
     ethr =  1.56E-08,  avg # of iterations =  6.1

     total cpu time spent up to now is       31.1 secs

     total energy              =     -46.17451607 Ry
     estimated scf accuracy    <       0.00000005 Ry

     iteration #  7     ecut=    40.00 Ry     beta= 0.70
     CG style diagonalization
     ethr =  6.56E-10,  avg # of iterations =  4.5

     total cpu time spent up to now is       35.7 secs

     End of self-consistent calculation

     Number of k-points >= 100: set verbosity='high' to print the bands.

     highest occupied level (ev):     9.6992

!    total energy              =     -46.17451609 Ry
     estimated scf accuracy    <          8.2E-09 Ry

     The total energy is the sum of the following terms:
     one-electron contribution =       6.69508189 Ry
     hartree contribution      =       1.24506089 Ry
     xc contribution           =     -34.15598168 Ry
     ewald contribution        =     -19.95867719 Ry

     convergence has been achieved in   7 iterations

     Forces acting on atoms (cartesian axes, Ry/au):

     atom    1 type  1   force =    -0.07797072    0.07797072   -0.02682775
     atom    2 type  2   force =     0.07797072   -0.07797072    0.02682775

     Total force =     0.160490     Total SCF correction =     0.000012


     Computing stress (Cartesian axis) and pressure

          total   stress  (Ry/bohr**3)                   (kbar)     P=        6.43
   0.00001305  -0.00015670   0.00036724            1.92      -23.05       54.02
  -0.00015670   0.00001305  -0.00036724          -23.05        1.92      -54.02
   0.00036724  -0.00036724   0.00010504           54.02      -54.02       15.45


     Writing all to output data dir ./c_k8.save/
 
     init_run     :      3.15s CPU      3.46s WALL (       1 calls)
     electrons    :     28.39s CPU     30.92s WALL (       1 calls)
     forces       :      0.53s CPU      0.57s WALL (       1 calls)
     stress       :      4.07s CPU      4.19s WALL (       1 calls)

     Called by init_run:
     wfcinit      :      1.44s CPU      1.56s WALL (       1 calls)
     potinit      :      0.04s CPU      0.06s WALL (       1 calls)
     hinit0       :      1.43s CPU      1.53s WALL (       1 calls)

     Called by electrons:
     c_bands      :     22.46s CPU     24.51s WALL (       7 calls)
     sum_band     :      4.51s CPU      4.77s WALL (       7 calls)
     v_of_rho     :      0.19s CPU      0.20s WALL (       8 calls)
     newd         :      1.33s CPU      1.52s WALL (       8 calls)
     mix_rho      :      0.05s CPU      0.06s WALL (       7 calls)

     Called by c_bands:
     init_us_2    :      2.44s CPU      2.63s WALL (    2550 calls)
     init_us_2:cp :      2.39s CPU      2.59s WALL (    2550 calls)
     ccgdiagg     :     17.66s CPU     19.33s WALL (    1050 calls)
     wfcrot       :      4.65s CPU      4.89s WALL (    1050 calls)

     Called by *cgdiagg:
     h_psi        :     17.74s CPU     19.16s WALL (   15591 calls)
     s_psi        :      1.31s CPU      1.45s WALL (   30132 calls)

     Called by h_psi:
     h_psi:calbec :      1.28s CPU      1.39s WALL (   15591 calls)
     vloc_psi     :     14.80s CPU     15.99s WALL (   15591 calls)
     add_vuspsi   :      0.88s CPU      0.96s WALL (   15591 calls)
     hs_1psi      :     15.10s CPU     16.47s WALL (   14541 calls)
     s_1psi       :      1.66s CPU      1.83s WALL (   14541 calls)

     General routines
     calbec       :      1.85s CPU      2.03s WALL (   31932 calls)
     fft          :      0.13s CPU      0.16s WALL (      54 calls)
     ffts         :      0.01s CPU      0.01s WALL (      15 calls)
     fftw         :     14.11s CPU     15.21s WALL (   42882 calls)
     interpolate  :      0.03s CPU      0.03s WALL (       8 calls)
 
     Parallel routines
 
     PWSCF        :     37.05s CPU     42.23s WALL

 
   This run was terminated on:  18:35:45  19Feb2022            

=------------------------------------------------------------------------------=
   JOB DONE.
=------------------------------------------------------------------------------=
