
     Program PWSCF v.6.4.1 starts on 24Apr2022 at  8: 1:38 

     This program is part of the open-source Quantum ESPRESSO suite
     for quantum simulation of materials; please cite
         "P. Giannozzi et al., J. Phys.:Condens. Matter 21 395502 (2009);
         "P. Giannozzi et al., J. Phys.:Condens. Matter 29 465901 (2017);
          URL http://www.quantum-espresso.org", 
     in publications or presentations arising from this work. More details at
     http://www.quantum-espresso.org/quote

     Parallel version (MPI & OpenMP), running on     120 processor cores
     Number of MPI processes:               120
     Threads/MPI process:                     1

     MPI processes distributed on     2 nodes
     R & G space division:  proc/nbgrp/npool/nimage =     120
     Waiting for input...
     Reading input from standard input

     Current dimensions of program PWSCF are:
     Max number of different atomic species (ntypx) = 10
     Max number of k-points (npk) =  40000
     Max angular momentum in pseudopotentials (lmaxx) =  3

     Subspace diagonalization in iterative solution of the eigenvalue problem:
     one sub-group per band group will be used
     scalapack distributed-memory algorithm (size of sub-group:  7*  7 procs)

 
     Parallelization info
     --------------------
     sticks:   dense  smooth     PW     G-vecs:    dense   smooth      PW
     Min          19      19      5                  560      560      85
     Max          20      20      6                  567      567      92
     Sum        2387    2387    697                67725    67725   10711
 


     bravais-lattice index     =            5
     lattice parameter (alat)  =      12.1620  a.u.
     unit-cell volume          =     854.7720 (a.u.)^3
     number of atoms/cell      =           10
     number of atomic types    =            3
     number of electrons       =        64.00
     number of Kohn-Sham states=           32
     kinetic-energy cutoff     =      70.0000  Ry
     charge density cutoff     =     280.0000  Ry
     convergence threshold     =      1.0E-05
     mixing beta               =       0.7000
     number of iterations used =            8  plain     mixing
     Exchange-correlation      = SLA  PW   PBE  PBE ( 1  4  3  4 0 0)
     nstep                     =           50


     celldm(1)=  12.162000  celldm(2)=   0.000000  celldm(3)=   0.000000
     celldm(4)=   0.692300  celldm(5)=   0.000000  celldm(6)=   0.000000

     crystal axes: (cart. coord. in units of alat)
               a(1) = (   0.392237  -0.226458   0.891553 )  
               a(2) = (   0.000000   0.452916   0.891553 )  
               a(3) = (  -0.392237  -0.226458   0.891553 )  

     reciprocal axes: (cart. coord. in units 2 pi/alat)
               b(1) = (  1.274739 -0.735971  0.373879 )  
               b(2) = (  0.000000  1.471942  0.373879 )  
               b(3) = ( -1.274739 -0.735971  0.373879 )  


     PseudoPot. # 1 for Ca read from file:
     ./Ca_PBE.UPF
     MD5 check sum: 403a4c14b9e4d4dfdc3024c9a3812218
     Pseudo is Ultrasoft + core correction, Zval = 10.0
     Generated by new atomic code, or converted to UPF format
     Using radial grid of  845 points,  6 beta functions with: 
                l(1) =   0
                l(2) =   0
                l(3) =   1
                l(4) =   1
                l(5) =   2
                l(6) =   2
     Q(r) pseudized with  8 coefficients,  rinner =    1.500   1.500   1.500
                                                       1.500   1.500

     PseudoPot. # 2 for C  read from file:
     ./C_PBE.UPF
     MD5 check sum: d1aef80898a10debaa0f26306b886e00
     Pseudo is Ultrasoft + core correction, Zval =  4.0
     Generated by new atomic code, or converted to UPF format
     Using radial grid of  721 points,  4 beta functions with: 
                l(1) =   0
                l(2) =   0
                l(3) =   1
                l(4) =   1
     Q(r) pseudized with  8 coefficients,  rinner =    1.100   1.100   1.100


     PseudoPot. # 3 for O  read from file:
     ./O_PBE.UPF
     MD5 check sum: 734c27235a0248c51dbae37a1fbe46ec
     Pseudo is Ultrasoft + core correction, Zval =  6.0
     Generated by new atomic code, or converted to UPF format
     Using radial grid of  737 points,  5 beta functions with: 
                l(1) =   0
                l(2) =   0
                l(3) =   1
                l(4) =   1
                l(5) =   2
     Q(r) pseudized with  8 coefficients,  rinner =    0.900   0.900   0.900
                                                       0.900   0.900

     atomic species   valence    mass     pseudopotential
        Ca            10.00    40.07800     Ca( 1.00)
        C              4.00    12.01070     C ( 1.00)
        O              6.00    16.00000     O ( 1.00)

     12 Sym. Ops., with inversion, found ( 6 have fractional translation)



   Cartesian axes

     site n.     atom                  positions (alat units)
         1           Ca  tau(   1) = (   0.0000000  -0.0000000   1.3373294  )
         2           Ca  tau(   2) = (   0.0000000   0.0000000   0.0000000  )
         3           C   tau(   3) = (   0.0000000  -0.0000000   0.6686647  )
         4           C   tau(   4) = (   0.0000000  -0.0000000   2.0059941  )
         5           O   tau(   5) = (   0.1007658   0.2783849   1.5602177  )
         6           O   tau(   6) = (   0.1907055  -0.2264582   1.5602177  )
         7           O   tau(   7) = (  -0.2914713  -0.0519267   1.5602177  )
         8           O   tau(   8) = (  -0.1907055   0.2264582   1.1144412  )
         9           O   tau(   9) = (   0.2914713   0.0519267   1.1144412  )
        10           O   tau(  10) = (  -0.1007658  -0.2783849   1.1144412  )

     number of k points=    85
                       cart. coord. in units 2pi/alat
        k(    1) = (   0.0000000   0.0000000   0.0000000), wk =   0.0027435
        k(    2) = (  -0.1416377  -0.0817745   0.0415422), wk =   0.0164609
        k(    3) = (  -0.2832753  -0.1635491   0.0830843), wk =   0.0164609
        k(    4) = (  -0.4249130  -0.2453236   0.1246265), wk =   0.0164609
        k(    5) = (  -0.5665506  -0.3270982   0.1661686), wk =   0.0164609
        k(    6) = (  -0.1416377   0.0817745   0.0830843), wk =   0.0164609
        k(    7) = (  -0.2832753   0.0000000   0.1246265), wk =   0.0329218
        k(    8) = (  -0.4249130  -0.0817745   0.1661686), wk =   0.0329218
        k(    9) = (  -0.5665506  -0.1635491   0.2077108), wk =   0.0329218
        k(   10) = (   0.5665506   0.4906472  -0.1246265), wk =   0.0329218
        k(   11) = (   0.4249130   0.4088727  -0.0830843), wk =   0.0329218
        k(   12) = (   0.2832753   0.3270982  -0.0415422), wk =   0.0329218
        k(   13) = (   0.1416377   0.2453236   0.0000000), wk =   0.0164609
        k(   14) = (  -0.2832753   0.1635491   0.1661686), wk =   0.0164609
        k(   15) = (  -0.4249130   0.0817745   0.2077108), wk =   0.0329218
        k(   16) = (  -0.5665506   0.0000000   0.2492530), wk =   0.0329218
        k(   17) = (   0.5665506   0.6541963  -0.0830843), wk =   0.0329218
        k(   18) = (   0.4249130   0.5724218  -0.0415422), wk =   0.0329218
        k(   19) = (   0.2832753   0.4906472   0.0000000), wk =   0.0164609
        k(   20) = (  -0.4249130   0.2453236   0.2492530), wk =   0.0164609
        k(   21) = (  -0.5665506   0.1635491   0.2907951), wk =   0.0329218
        k(   22) = (   0.5665506   0.8177454  -0.0415422), wk =   0.0329218
        k(   23) = (   0.4249130   0.7359709   0.0000000), wk =   0.0164609
        k(   24) = (  -0.5665506   0.3270982   0.3323373), wk =   0.0164609
        k(   25) = (   0.5665506   0.9812945   0.0000000), wk =   0.0164609
        k(   26) = (  -0.0000000   0.0000000   0.1246265), wk =   0.0054870
        k(   27) = (  -0.1416377  -0.0817745   0.1661686), wk =   0.0164609
        k(   28) = (  -0.2832753  -0.1635491   0.2077108), wk =   0.0164609
        k(   29) = (  -0.4249130  -0.2453236   0.2492530), wk =   0.0164609
        k(   30) = (   0.7081883   0.4088727  -0.0830843), wk =   0.0164609
        k(   31) = (   0.5665506   0.3270982  -0.0415422), wk =   0.0164609
        k(   32) = (   0.4249130   0.2453236   0.0000000), wk =   0.0164609
        k(   33) = (   0.2832753   0.1635491   0.0415422), wk =   0.0164609
        k(   34) = (  -0.1416377   0.0817745   0.2077108), wk =   0.0164609
        k(   35) = (  -0.2832753   0.0000000   0.2492530), wk =   0.0329218
        k(   36) = (  -0.4249130  -0.0817745   0.2907951), wk =   0.0329218
        k(   37) = (   0.7081883   0.5724218  -0.0415422), wk =   0.0329218
        k(   38) = (   0.5665506   0.4906472   0.0000000), wk =   0.0329218
        k(   39) = (   0.4249130   0.4088727   0.0415422), wk =   0.0329218
        k(   40) = (   0.2832753   0.3270982   0.0830843), wk =   0.0329218
        k(   41) = (  -0.2832753   0.1635491   0.2907951), wk =   0.0164609
        k(   42) = (  -0.4249130   0.0817745   0.3323373), wk =   0.0329218
        k(   43) = (   0.7081883   0.7359709   0.0000000), wk =   0.0329218
        k(   44) = (   0.5665506   0.6541963   0.0415422), wk =   0.0329218
        k(   45) = (   0.4249130   0.5724218   0.0830843), wk =   0.0329218
        k(   46) = (   0.2832753   0.4906472   0.1246265), wk =   0.0329218
        k(   47) = (  -0.4249130   0.2453236   0.3738795), wk =   0.0164609
        k(   48) = (   0.7081883   0.8995200   0.0415422), wk =   0.0329218
        k(   49) = (   0.5665506   0.8177454   0.0830843), wk =   0.0329218
        k(   50) = (   0.4249130   0.7359709   0.1246265), wk =   0.0329218
        k(   51) = (   0.2832753   0.6541963   0.1661686), wk =   0.0329218
        k(   52) = (   0.7081883  -0.4088727  -0.2907951), wk =   0.0164609
        k(   53) = (   0.5665506  -0.4906472  -0.2492530), wk =   0.0329218
        k(   54) = (   0.4249130  -0.5724218  -0.2077108), wk =   0.0329218
        k(   55) = (   0.5665506  -0.3270982  -0.2077108), wk =   0.0164609
        k(   56) = (   0.4249130  -0.4088727  -0.1661686), wk =   0.0329218
        k(   57) = (   0.4249130  -0.2453236  -0.1246265), wk =   0.0164609
        k(   58) = (  -0.0000000   0.0000000   0.2492530), wk =   0.0054870
        k(   59) = (  -0.1416377  -0.0817745   0.2907951), wk =   0.0164609
        k(   60) = (  -0.2832753  -0.1635491   0.3323373), wk =   0.0164609
        k(   61) = (   0.8498260   0.4906472   0.0000000), wk =   0.0164609
        k(   62) = (   0.7081883   0.4088727   0.0415422), wk =   0.0164609
        k(   63) = (   0.5665506   0.3270982   0.0830843), wk =   0.0164609
        k(   64) = (  -0.1416377   0.0817745   0.3323373), wk =   0.0164609
        k(   65) = (  -0.2832753   0.0000000   0.3738795), wk =   0.0329218
        k(   66) = (   0.8498260   0.6541963   0.0415422), wk =   0.0329218
        k(   67) = (   0.7081883   0.5724218   0.0830843), wk =   0.0329218
        k(   68) = (   0.5665506   0.4906472   0.1246265), wk =   0.0329218
        k(   69) = (  -0.2832753   0.1635491   0.4154216), wk =   0.0164609
        k(   70) = (   0.8498260   0.8177454   0.0830843), wk =   0.0329218
        k(   71) = (   0.7081883   0.7359709   0.1246265), wk =   0.0329218
        k(   72) = (   0.5665506   0.6541963   0.1661686), wk =   0.0329218
        k(   73) = (   0.8498260  -0.4906472  -0.2492530), wk =   0.0164609
        k(   74) = (   0.7081883  -0.5724218  -0.2077108), wk =   0.0329218
        k(   75) = (   0.7081883  -0.4088727  -0.1661686), wk =   0.0164609
        k(   76) = (   0.0000000   0.0000000   0.3738795), wk =   0.0054870
        k(   77) = (  -0.1416377  -0.0817745   0.4154216), wk =   0.0164609
        k(   78) = (   0.9914636   0.5724218   0.0830843), wk =   0.0164609
        k(   79) = (   0.8498260   0.4906472   0.1246265), wk =   0.0164609
        k(   80) = (  -0.1416377   0.0817745   0.4569638), wk =   0.0164609
        k(   81) = (   0.9914636   0.7359709   0.1246265), wk =   0.0329218
        k(   82) = (   0.8498260   0.6541963   0.1661686), wk =   0.0329218
        k(   83) = (   0.9914636  -0.5724218  -0.2077108), wk =   0.0164609
        k(   84) = (  -0.0000000   0.0000000   0.4985059), wk =   0.0054870
        k(   85) = (   1.1331013   0.6541963   0.1661686), wk =   0.0164609

     Dense  grid:    67725 G-vectors     FFT dimensions: (  72,  72,  72)

     Estimated max dynamical RAM per process >      21.16 MB

     Estimated total dynamical RAM >       2.48 GB
     Message from routine sym_rho_init:
     some processors have no G-vectors for symmetrization

     Check: negative core charge=   -0.000003

     Initial potential from superposition of free atoms

     starting charge   63.98899, renormalised to   64.00000
     Starting wfcs are   52 randomized atomic wfcs

     total cpu time spent up to now is       13.4 secs

     Self-consistent Calculation

     iteration #  1     ecut=    70.00 Ry     beta= 0.70
     CG style diagonalization
     ethr =  1.00E-02,  avg # of iterations =  2.7

     total cpu time spent up to now is       37.7 secs

     total energy              =    -366.67175787 Ry
     Harris-Foulkes estimate   =    -367.89532768 Ry
     estimated scf accuracy    <       1.75438222 Ry

     iteration #  2     ecut=    70.00 Ry     beta= 0.70
     CG style diagonalization
     ethr =  2.74E-03,  avg # of iterations =  4.4

     total cpu time spent up to now is       76.4 secs

     total energy              =    -367.10379246 Ry
     Harris-Foulkes estimate   =    -367.91599837 Ry
     estimated scf accuracy    <       1.67033189 Ry

     iteration #  3     ecut=    70.00 Ry     beta= 0.70
     CG style diagonalization
     ethr =  2.61E-03,  avg # of iterations =  3.8

     total cpu time spent up to now is      110.1 secs

     total energy              =    -367.42132433 Ry
     Harris-Foulkes estimate   =    -367.42332203 Ry
     estimated scf accuracy    <       0.01090348 Ry

     iteration #  4     ecut=    70.00 Ry     beta= 0.70
     CG style diagonalization
     ethr =  1.70E-05,  avg # of iterations =  4.4

     total cpu time spent up to now is      149.5 secs

     total energy              =    -367.43312087 Ry
     Harris-Foulkes estimate   =    -367.43412862 Ry
     estimated scf accuracy    <       0.00275401 Ry

     iteration #  5     ecut=    70.00 Ry     beta= 0.70
     CG style diagonalization
     ethr =  4.30E-06,  avg # of iterations =  3.6

     total cpu time spent up to now is      181.4 secs

     total energy              =    -367.43347844 Ry
     Harris-Foulkes estimate   =    -367.43352440 Ry
     estimated scf accuracy    <       0.00017387 Ry

     iteration #  6     ecut=    70.00 Ry     beta= 0.70
     CG style diagonalization
     ethr =  2.72E-07,  avg # of iterations =  4.1

     total cpu time spent up to now is      217.6 secs

     total energy              =    -367.43351705 Ry
     Harris-Foulkes estimate   =    -367.43353266 Ry
     estimated scf accuracy    <       0.00002587 Ry

     iteration #  7     ecut=    70.00 Ry     beta= 0.70
     CG style diagonalization
     ethr =  4.04E-08,  avg # of iterations =  4.1

     total cpu time spent up to now is      254.0 secs

     End of self-consistent calculation

          k = 0.0000 0.0000 0.0000 (  8387 PWs)   bands (ev):

   -33.6974 -33.6848 -17.0812 -17.0716 -15.1280 -15.1280 -14.7630 -14.7630
   -14.6700 -14.5619 -13.9044 -13.9044 -13.3733 -13.3733  -3.3136  -3.0407
    -1.6909  -1.5332  -1.5332  -1.2742  -1.2742  -0.4012   2.3556   2.3556
     2.7871   2.7871   2.9596   2.9596   3.5742   3.5742   3.7749   4.2019

          k =-0.1416-0.0818 0.0415 (  8452 PWs)   bands (ev):

   -33.6969 -33.6851 -17.0814 -17.0677 -15.1273 -15.0891 -14.8025 -14.7609
   -14.6851 -14.6284 -13.8781 -13.8036 -13.4229 -13.3824  -3.2637  -3.0477
    -1.6454  -1.5139  -1.4938  -1.2965  -1.2669  -0.4544   2.3803   2.4118
     2.7316   2.7728   2.8654   2.9117   3.4945   3.5127   3.8873   4.2060

          k =-0.2833-0.1635 0.0831 (  8452 PWs)   bands (ev):

   -33.6957 -33.6861 -17.0981 -17.0395 -15.1256 -15.0188 -14.9264 -14.7712
   -14.6941 -14.6710 -13.8121 -13.6446 -13.5358 -13.4102  -3.1440  -3.0499
    -1.5595  -1.4606  -1.3829  -1.3203  -1.2618  -0.5780   2.4204   2.4989
     2.6136   2.6433   2.7767   2.7844   3.3468   3.3779   4.0908   4.2176

          k =-0.4249-0.2453 0.1246 (  8463 PWs)   bands (ev):

   -33.6939 -33.6876 -17.0993 -17.0248 -15.1157 -15.0094 -14.9928 -14.8378
   -14.6719 -14.6542 -13.7316 -13.6150 -13.5557 -13.4598  -3.0236  -3.0215
    -1.5392  -1.4150  -1.2763  -1.2712  -1.2046  -0.7082   2.2858   2.3610
     2.5702   2.5937   2.7208   2.8260   3.1988   3.2322   4.2430   4.2579

          k =-0.5666-0.3271 0.1662 (  8451 PWs)   bands (ev):

   -33.6917 -33.6896 -17.0757 -17.0415 -15.0576 -15.0204 -15.0056 -14.9447
   -14.6587 -14.6430 -13.6422 -13.5979 -13.5547 -13.5392  -2.9753  -2.9629
    -1.5259  -1.4642  -1.2406  -1.2300  -1.0060  -0.8382   2.1509   2.2092
     2.5330   2.5618   2.8055   2.8571   3.1094   3.1237   4.2903   4.3194

          k =-0.1416 0.0818 0.0831 (  8447 PWs)   bands (ev):

   -33.6968 -33.6853 -17.0824 -17.0671 -15.1075 -15.1050 -14.7994 -14.7638
   -14.6798 -14.6453 -13.8415 -13.8249 -13.4098 -13.4029  -3.2613  -3.0546
    -1.6299  -1.5077  -1.4982  -1.3009  -1.2646  -0.4654   2.3809   2.4173
     2.7364   2.7397   2.8919   2.9180   3.4664   3.5294   3.8884   4.2000

          k =-0.2833 0.0000 0.1246 (  8453 PWs)   bands (ev):

   -33.6959 -33.6860 -17.0961 -17.0459 -15.1113 -15.0584 -14.8645 -14.7676
   -14.7093 -14.6747 -13.8031 -13.7061 -13.4877 -13.4173  -3.1745  -3.0625
    -1.5567  -1.4758  -1.4216  -1.3219  -1.2543  -0.5597   2.4114   2.4893
     2.6193   2.7085   2.7635   2.8627   3.3404   3.4424   4.0398   4.2049

          k =-0.4249-0.0818 0.1662 (  8463 PWs)   bands (ev):

   -33.6944 -33.6872 -17.1007 -17.0287 -15.1093 -15.0677 -14.9068 -14.8195
   -14.6777 -14.6736 -13.7309 -13.6928 -13.4984 -13.4550  -3.0611  -3.0387
    -1.5218  -1.4177  -1.3576  -1.2500  -1.2310  -0.6779   2.3461   2.4492
     2.5336   2.6096   2.7225   2.8204   3.1947   3.3133   4.2120   4.2329

          k =-0.5666-0.1635 0.2077 (  8446 PWs)   bands (ev):

   -33.6924 -33.6889 -17.0807 -17.0395 -15.0982 -15.0540 -14.9360 -14.9038
   -14.6630 -14.6520 -13.7038 -13.6468 -13.5214 -13.4788  -2.9862  -2.9788
    -1.5112  -1.4519  -1.2923  -1.2322  -1.0486  -0.7887   2.1970   2.2767
     2.5088   2.5461   2.7548   2.8391   3.1092   3.2021   4.2886   4.3084

          k = 0.5666 0.4906-0.1246 (  8453 PWs)   bands (ev):

   -33.6909 -33.6903 -17.0736 -17.0425 -15.0910 -15.0296 -14.9920 -14.9093
   -14.6649 -14.6411 -13.6967 -13.6168 -13.5460 -13.4813  -2.9786  -2.9280
    -1.5259  -1.4615  -1.2587  -1.2129  -0.9293  -0.8864   2.1304   2.1987
     2.4801   2.5412   2.7702   2.8353   3.1165   3.1516   4.3022   4.3518

          k = 0.4249 0.4089-0.0831 (  8445 PWs)   bands (ev):

   -33.6930 -33.6883 -17.1043 -17.0127 -15.1370 -15.0352 -14.9819 -14.8316
   -14.6838 -14.6292 -13.7555 -13.6232 -13.5334 -13.4502  -3.0159  -2.9452
    -1.5538  -1.3941  -1.2787  -1.2263  -1.1171  -0.7664   2.1515   2.3356
     2.4798   2.5738   2.6984   2.8690   3.1338   3.2146   4.2539   4.3460

          k = 0.2833 0.3271-0.0415 (  8459 PWs)   bands (ev):

   -33.6948 -33.6867 -17.1116 -17.0156 -15.1201 -15.0662 -14.9114 -14.7937
   -14.6991 -14.6665 -13.7485 -13.6833 -13.4967 -13.4487  -3.0491  -3.0429
    -1.5431  -1.4058  -1.3302  -1.2980  -1.2392  -0.6559   2.3339   2.4650
     2.5453   2.6357   2.6489   2.8288   3.2256   3.3313   4.2206   4.2305

          k = 0.1416 0.2453 0.0000 (  8469 PWs)   bands (ev):

   -33.6962 -33.6857 -17.0973 -17.0439 -15.1087 -15.0690 -14.8221 -14.8054
   -14.6987 -14.6812 -13.8088 -13.7169 -13.4765 -13.4138  -3.1741  -3.0537
    -1.5811  -1.4769  -1.4344  -1.3264  -1.2479  -0.5353   2.4108   2.4914
     2.6158   2.7430   2.7499   2.8195   3.3742   3.4457   4.0375   4.2142

          k =-0.2833 0.1635 0.1662 (  8445 PWs)   bands (ev):

   -33.6954 -33.6864 -17.1091 -17.0299 -15.0921 -15.0759 -14.8224 -14.7998
   -14.7403 -14.6885 -13.7423 -13.7092 -13.4826 -13.4554  -3.1201  -3.0847
    -1.4943  -1.4650  -1.4461  -1.2839  -1.2413  -0.6155   2.4246   2.4274
     2.6199   2.6384   2.7565   2.9069   3.2376   3.4396   4.1064   4.1891

          k =-0.4249 0.0818 0.2077 (  8457 PWs)   bands (ev):

   -33.6943 -33.6872 -17.1185 -17.0112 -15.1309 -15.0722 -14.8546 -14.7981
   -14.7045 -14.6883 -13.7601 -13.6849 -13.4932 -13.4447  -3.0803  -3.0240
    -1.5020  -1.4193  -1.3924  -1.2287  -1.1964  -0.7034   2.2861   2.4185
     2.5506   2.6383   2.7105   2.9011   3.1075   3.3650   4.1965   4.2425

          k =-0.5666 0.0000 0.2493 (  8460 PWs)   bands (ev):

   -33.6928 -33.6885 -17.1045 -17.0173 -15.1562 -15.0294 -14.9302 -14.8222
   -14.6854 -14.6562 -13.8015 -13.6069 -13.5489 -13.4181  -3.0240  -2.9524
    -1.5008  -1.4268  -1.3515  -1.2188  -1.0470  -0.7756   2.1620   2.3264
     2.5031   2.5565   2.6975   2.8397   3.0849   3.2770   4.2530   4.3440

          k = 0.5666 0.6542-0.0831 (  8445 PWs)   bands (ev):

   -33.6911 -33.6901 -17.0648 -17.0530 -15.1273 -15.0292 -14.9561 -14.8630
   -14.6813 -14.6584 -13.7569 -13.6455 -13.5156 -13.4354  -2.9446  -2.9405
    -1.5030  -1.4555  -1.3191  -1.2064  -0.9050  -0.8569   2.1465   2.1867
     2.4607   2.4986   2.7040   2.7585   3.1396   3.2202   4.3454   4.3536

          k = 0.4249 0.5724-0.0415 (  8447 PWs)   bands (ev):

   -33.6918 -33.6894 -17.0941 -17.0203 -15.1468 -15.0466 -14.9870 -14.7897
   -14.6992 -14.6343 -13.7958 -13.6386 -13.5201 -13.4142  -2.9867  -2.8960
    -1.5543  -1.3830  -1.3085  -1.2092  -0.9940  -0.8093   2.1022   2.2673
     2.4182   2.5031   2.6825   2.7861   3.1810   3.1984   4.2969   4.4037

          k = 0.2833 0.4906 0.0000 (  8451 PWs)   bands (ev):

   -33.6935 -33.6879 -17.1153 -17.0012 -15.1678 -15.0429 -14.9717 -14.7538
   -14.7141 -14.6256 -13.8117 -13.6379 -13.5210 -13.4134  -3.0317  -2.9370
    -1.5575  -1.3633  -1.2950  -1.2288  -1.1648  -0.7408   2.1635   2.4363
     2.4447   2.5302   2.6467   2.8575   3.1578   3.2597   4.2439   4.3602

          k =-0.4249 0.2453 0.2493 (  8463 PWs)   bands (ev):

   -33.6939 -33.6876 -17.1386 -16.9847 -15.1546 -15.1280 -14.7999 -14.7422
   -14.7198 -14.6918 -13.7962 -13.7372 -13.4575 -13.4174  -3.1130  -2.9394
    -1.5386  -1.3906  -1.3477  -1.2137  -1.1219  -0.7666   2.1475   2.3794
     2.4972   2.7071   2.7143   2.9622   2.9906   3.3497   4.1618   4.3278

          k =-0.5666 0.1635 0.2908 (  8463 PWs)   bands (ev):

   -33.6930 -33.6884 -17.1381 -16.9792 -15.1921 -15.1223 -14.8177 -14.7568
   -14.6976 -14.6453 -13.8712 -13.7157 -13.4612 -13.3804  -3.0927  -2.8722
    -1.5469  -1.4007  -1.3112  -1.2018  -1.0226  -0.8092   2.0414   2.3049
     2.4809   2.6791   2.7079   2.8070   3.0759   3.2965   4.1799   4.4104

          k = 0.5666 0.8177-0.0415 (  8446 PWs)   bands (ev):

   -33.6918 -33.6894 -17.1075 -17.0102 -15.1702 -15.0676 -14.8738 -14.8081
   -14.7094 -14.6545 -13.8334 -13.6674 -13.4893 -13.3952  -3.0134  -2.8707
    -1.4997  -1.4577  -1.3294  -1.1964  -0.9167  -0.8263   2.0356   2.2238
     2.4822   2.5703   2.6754   2.6970   3.1506   3.2515   4.2692   4.4270

          k = 0.4249 0.7360 0.0000 (  8457 PWs)   bands (ev):

   -33.6906 -33.6906 -17.0587 -17.0585 -15.1156 -15.0807 -14.9159 -14.8268
   -14.7177 -14.6598 -13.7315 -13.7248 -13.4516 -13.4484  -2.9257  -2.9251
    -1.5220  -1.4118  -1.3543  -1.1983  -0.8870  -0.8410   2.1328   2.1443
     2.4611   2.4790   2.6613   2.6981   3.1832   3.2269   4.3699   4.3735

          k =-0.5666 0.3271 0.3323 (  8481 PWs)   bands (ev):

   -33.6928 -33.6884 -17.1573 -16.9532 -15.2076 -15.2009 -14.7487 -14.7276
   -14.6963 -14.5924 -13.9207 -13.8205 -13.3978 -13.3576  -3.1294  -2.8046
    -1.5870  -1.3777  -1.2644  -1.1894  -0.9857  -0.8517   1.9452   2.2566
     2.4981   2.7268   2.7342   2.7415   3.1090   3.2742   4.1311   4.4679

          k = 0.5666 0.9813 0.0000 (  8456 PWs)   bands (ev):

   -33.6924 -33.6888 -17.1458 -16.9662 -15.2005 -15.1745 -14.7728 -14.7215
   -14.7187 -14.6184 -13.9110 -13.7763 -13.4173 -13.3611  -3.0970  -2.8054
    -1.5678  -1.4048  -1.2782  -1.1879  -0.9478  -0.8426   1.9436   2.2332
     2.5061   2.6670   2.7005   2.7094   3.1464   3.2536   4.1694   4.4761

          k =-0.0000 0.0000 0.1246 (  8465 PWs)   bands (ev):

   -33.6970 -33.6852 -17.0812 -17.0722 -15.1202 -15.1202 -14.7803 -14.7803
   -14.6663 -14.5647 -13.8822 -13.8822 -13.3861 -13.3861  -3.3109  -3.0581
    -1.6451  -1.5253  -1.5253  -1.2820  -1.2820  -0.4361   2.3689   2.3689
     2.7715   2.7715   2.9787   2.9787   3.5524   3.5524   3.7860   4.1853

          k =-0.1416-0.0818 0.1662 (  8460 PWs)   bands (ev):

   -33.6963 -33.6857 -17.0802 -17.0698 -15.1310 -15.0623 -14.8621 -14.7541
   -14.6821 -14.6116 -13.8750 -13.7582 -13.4570 -13.3859  -3.2628  -3.0685
    -1.5890  -1.5059  -1.4663  -1.3017  -1.2846  -0.5052   2.3968   2.4255
     2.7086   2.7580   2.8717   2.9624   3.4562   3.4846   3.8977   4.1845

          k =-0.2833-0.1635 0.2077 (  8460 PWs)   bands (ev):

   -33.6949 -33.6868 -17.0881 -17.0512 -15.1276 -14.9846 -14.9828 -14.7519
   -14.7074 -14.6450 -13.8136 -13.6153 -13.5705 -13.4094  -3.1581  -3.0521
    -1.5268  -1.4583  -1.3484  -1.2927  -1.2876  -0.6253   2.4072   2.5272
     2.6043   2.6335   2.7454   2.8696   3.2979   3.3453   4.0865   4.2105

          k =-0.4249-0.2453 0.2493 (  8450 PWs)   bands (ev):

   -33.6931 -33.6884 -17.0755 -17.0516 -15.0983 -15.0474 -14.9575 -14.8486
   -14.6750 -14.6481 -13.7255 -13.6255 -13.5613 -13.4536  -3.0624  -2.9912
    -1.4967  -1.4551  -1.3110  -1.2666  -1.1192  -0.7438   2.3006   2.3435
     2.5486   2.5887   2.7602   2.8539   3.1463   3.2097   4.2256   4.2678

          k = 0.7082 0.4089-0.0831 (  8442 PWs)   bands (ev):

   -33.6910 -33.6903 -17.0774 -17.0411 -15.0930 -15.0272 -14.9764 -14.9180
   -14.6708 -14.6334 -13.6741 -13.6336 -13.5495 -13.4868  -3.0199  -2.9197
    -1.5259  -1.4579  -1.2773  -1.2084  -0.9481  -0.8755   2.1298   2.2204
     2.4987   2.5967   2.7752   2.9198   3.0456   3.1426   4.2648   4.3429

          k = 0.5666 0.3271-0.0415 (  8445 PWs)   bands (ev):

   -33.6924 -33.6889 -17.1078 -17.0069 -15.1229 -15.0784 -14.9408 -14.8651
   -14.6845 -14.6169 -13.7397 -13.6267 -13.5273 -13.4641  -3.0299  -2.9061
    -1.5694  -1.3900  -1.2777  -1.1972  -1.0543  -0.8155   2.0758   2.2786
     2.4711   2.6286   2.7218   2.9492   3.0454   3.1832   4.2376   4.3724

          k = 0.4249 0.2453 0.0000 (  8446 PWs)   bands (ev):

   -33.6943 -33.6872 -17.1190 -17.0028 -15.1377 -15.0549 -14.9397 -14.7939
   -14.6984 -14.6499 -13.7712 -13.6050 -13.5591 -13.4364  -3.0545  -2.9870
    -1.5534  -1.3930  -1.2858  -1.2569  -1.2282  -0.7026   2.2245   2.4084
     2.5448   2.6380   2.6456   2.8923   3.1494   3.2991   4.2147   4.2878

          k = 0.2833 0.1635 0.0415 (  8460 PWs)   bands (ev):

   -33.6959 -33.6859 -17.1054 -17.0321 -15.1085 -15.0569 -14.8624 -14.7893
   -14.7043 -14.6941 -13.7867 -13.6771 -13.5051 -13.4257  -3.1306  -3.0611
    -1.5488  -1.4573  -1.4325  -1.3077  -1.2444  -0.5752   2.4275   2.4588
     2.6296   2.6381   2.7376   2.8417   3.3093   3.4277   4.0973   4.2102

          k =-0.1416 0.0818 0.2077 (  8456 PWs)   bands (ev):

   -33.6960 -33.6861 -17.0830 -17.0679 -15.1087 -15.0728 -14.8570 -14.7712
   -14.6689 -14.6422 -13.8173 -13.7759 -13.4462 -13.4184  -3.2555  -3.0865
    -1.5511  -1.4882  -1.4747  -1.3138  -1.2780  -0.5372   2.4000   2.4408
     2.6903   2.7230   2.9118   2.9878   3.4035   3.5033   3.9032   4.1680

          k =-0.2833 0.0000 0.2493 (  8462 PWs)   bands (ev):

   -33.6950 -33.6869 -17.0925 -17.0515 -15.1114 -15.0381 -14.9084 -14.7452
   -14.7253 -14.6595 -13.7851 -13.6798 -13.5147 -13.4305  -3.1745  -3.0854
    -1.4987  -1.4680  -1.3975  -1.2936  -1.2710  -0.6317   2.4154   2.4872
     2.6177   2.6652   2.7990   2.9429   3.2634   3.4145   4.0474   4.1802

          k =-0.4249-0.0818 0.2908 (  8453 PWs)   bands (ev):

   -33.6934 -33.6881 -17.0861 -17.0468 -15.0899 -15.0831 -14.9003 -14.8140
   -14.7011 -14.6606 -13.7329 -13.6799 -13.5153 -13.4514  -3.0805  -3.0331
    -1.4747  -1.4334  -1.3848  -1.2610  -1.1405  -0.7316   2.3369   2.4065
     2.5729   2.5993   2.7262   2.8950   3.1220   3.2872   4.1982   4.2350

          k = 0.7082 0.5724-0.0415 (  8461 PWs)   bands (ev):

   -33.6916 -33.6897 -17.0684 -17.0546 -15.1141 -15.0282 -14.9566 -14.8659
   -14.6797 -14.6533 -13.7370 -13.6074 -13.5659 -13.4468  -3.0266  -2.9426
    -1.5035  -1.4411  -1.3336  -1.2219  -0.9765  -0.8271   2.1826   2.2547
     2.5013   2.5820   2.7329   2.8808   3.0697   3.1926   4.2684   4.3245

          k = 0.5666 0.4906 0.0000 (  8430 PWs)   bands (ev):

   -33.6915 -33.6897 -17.1024 -17.0128 -15.1399 -15.0673 -14.9554 -14.8243
   -14.6907 -14.6247 -13.7783 -13.6294 -13.5328 -13.4267  -3.0257  -2.8799
    -1.5650  -1.3805  -1.3099  -1.1951  -0.9608  -0.8534   2.0596   2.2478
     2.4365   2.6026   2.7188   2.8671   3.0968   3.1791   4.2539   4.3992

          k = 0.4249 0.4089 0.0415 (  8457 PWs)   bands (ev):

   -33.6933 -33.6880 -17.1229 -16.9921 -15.1727 -15.0656 -14.9460 -14.7648
   -14.7084 -14.6179 -13.8240 -13.6110 -13.5462 -13.4063  -3.0498  -2.9098
    -1.5689  -1.3614  -1.2808  -1.2293  -1.1275  -0.7647   2.1006   2.3822
     2.4317   2.6138   2.6675   2.9025   3.1009   3.2556   4.2208   4.3784

          k = 0.2833 0.3271 0.0831 (  8459 PWs)   bands (ev):

   -33.6948 -33.6867 -17.1178 -17.0095 -15.1237 -15.0757 -14.8902 -14.7783
   -14.7104 -14.6763 -13.7600 -13.6784 -13.4989 -13.4421  -3.0635  -3.0302
    -1.5331  -1.3998  -1.3779  -1.2614  -1.2293  -0.6653   2.3088   2.4522
     2.5749   2.5939   2.6742   2.8624   3.1850   3.3587   4.2113   4.2373

          k =-0.2833 0.1635 0.2908 (  8451 PWs)   bands (ev):

   -33.6945 -33.6873 -17.1084 -17.0330 -15.1179 -15.0312 -14.8734 -14.7806
   -14.7409 -14.6715 -13.7364 -13.6886 -13.4966 -13.4690  -3.1144  -3.1119
    -1.4801  -1.4283  -1.4202  -1.2557  -1.2342  -0.6949   2.4078   2.4195
     2.6133   2.6371   2.8012   2.9792   3.1438   3.4106   4.1187   4.1600

          k =-0.4249 0.0818 0.3323 (  8459 PWs)   bands (ev):

   -33.6934 -33.6882 -17.1134 -17.0199 -15.1383 -15.0544 -14.8456 -14.8004
   -14.7291 -14.6737 -13.7541 -13.6924 -13.4845 -13.4555  -3.0954  -3.0231
    -1.4856  -1.4189  -1.3804  -1.2431  -1.1162  -0.7664   2.2744   2.3797
     2.5623   2.6644   2.7461   2.9241   3.0455   3.3356   4.1834   4.2437

          k = 0.7082 0.7360 0.0000 (  8452 PWs)   bands (ev):

   -33.6921 -33.6893 -17.0914 -17.0346 -15.1363 -15.0385 -14.8870 -14.8373
   -14.6982 -14.6865 -13.7755 -13.6328 -13.5272 -13.4315  -3.0144  -2.9682
    -1.4603  -1.4549  -1.3682  -1.2258  -0.9747  -0.8126   2.1675   2.2656
     2.5353   2.5909   2.7076   2.8034   3.0825   3.2530   4.2660   4.3263

          k = 0.5666 0.6542 0.0415 (  8447 PWs)   bands (ev):

   -33.6906 -33.6906 -17.0715 -17.0482 -15.1223 -15.0463 -14.9481 -14.8139
   -14.7094 -14.6718 -13.7628 -13.6549 -13.5097 -13.4279  -2.9696  -2.9163
    -1.5256  -1.3984  -1.3565  -1.2111  -0.8786  -0.8623   2.1214   2.1694
     2.4691   2.5456   2.6836   2.7431   3.1462   3.2123   4.3261   4.3724

          k = 0.4249 0.5724 0.0831 (  8440 PWs)   bands (ev):

   -33.6920 -33.6892 -17.1038 -17.0105 -15.1661 -15.0430 -14.9801 -14.7518
   -14.7155 -14.6350 -13.8315 -13.6189 -13.5362 -13.3941  -3.0031  -2.8792
    -1.5575  -1.3776  -1.2999  -1.2245  -0.9880  -0.8040   2.0707   2.2720
     2.4157   2.5329   2.6691   2.7802   3.1663   3.2219   4.2793   4.4206

          k = 0.2833 0.4906 0.1246 (  8456 PWs)   bands (ev):

   -33.6933 -33.6880 -17.1126 -17.0054 -15.1655 -15.0373 -14.9609 -14.7839
   -14.6954 -14.6337 -13.8109 -13.6256 -13.5317 -13.4137  -3.0298  -2.9412
    -1.5420  -1.3877  -1.3104  -1.2317  -1.1200  -0.7500   2.1625   2.3891
     2.4764   2.5338   2.6666   2.8534   3.1291   3.2718   4.2460   4.3560

          k =-0.4249 0.2453 0.3739 (  8456 PWs)   bands (ev):

   -33.6930 -33.6884 -17.1358 -16.9905 -15.1789 -15.0994 -14.7809 -14.7599
   -14.7441 -14.6575 -13.7895 -13.7716 -13.4341 -13.4254  -3.1296  -2.9322
    -1.5406  -1.3868  -1.3201  -1.2291  -1.0546  -0.8209   2.1410   2.3374
     2.5466   2.7186   2.7447   2.8685   3.0277   3.3200   4.1499   4.3322

          k = 0.7082 0.8995 0.0415 (  8459 PWs)   bands (ev):

   -33.6924 -33.6889 -17.1324 -16.9882 -15.1787 -15.1252 -14.7951 -14.7461
   -14.7156 -14.6737 -13.8331 -13.7555 -13.4333 -13.4008  -3.0959  -2.8734
    -1.5441  -1.4035  -1.2991  -1.2202  -0.9695  -0.8385   2.0457   2.2702
     2.5324   2.6915   2.7069   2.7545   3.0906   3.2688   4.1824   4.4052

          k = 0.5666 0.8177 0.0831 (  8453 PWs)   bands (ev):

   -33.6915 -33.6897 -17.1004 -17.0191 -15.1470 -15.0832 -14.8478 -14.8156
   -14.7182 -14.6803 -13.7986 -13.6930 -13.4699 -13.4135  -3.0061  -2.8793
    -1.5014  -1.4582  -1.3144  -1.2176  -0.8935  -0.8344   2.0457   2.1980
     2.5105   2.5764   2.6625   2.6871   3.1605   3.2317   4.2804   4.4161

          k = 0.4249 0.7360 0.1246 (  8422 PWs)   bands (ev):

   -33.6906 -33.6906 -17.0586 -17.0585 -15.1084 -15.0913 -14.8953 -14.8528
   -14.6980 -14.6707 -13.7298 -13.7265 -13.4508 -13.4492  -2.9255  -2.9253
    -1.5055  -1.4596  -1.2966  -1.2281  -0.8737  -0.8509   2.1356   2.1414
     2.4657   2.4747   2.6698   2.6882   3.1948   3.2166   4.3708   4.3726

          k = 0.2833 0.6542 0.1662 (  8442 PWs)   bands (ev):

   -33.6915 -33.6897 -17.0806 -17.0351 -15.1310 -15.0511 -14.9552 -14.8529
   -14.6758 -14.6467 -13.7623 -13.6554 -13.5053 -13.4352  -2.9650  -2.9188
    -1.5193  -1.4519  -1.2626  -1.2376  -0.9541  -0.8305   2.1302   2.2341
     2.4507   2.4752   2.7037   2.7682   3.1637   3.2081   4.3195   4.3804

          k = 0.7082-0.4089-0.2908 (  8471 PWs)   bands (ev):

   -33.6925 -33.6888 -17.1522 -16.9603 -15.2097 -15.1836 -14.7487 -14.7273
   -14.7189 -14.5936 -13.8918 -13.8320 -13.3910 -13.3713  -3.1281  -2.8079
    -1.5877  -1.3750  -1.2473  -1.2145  -0.9612  -0.8644   1.9554   2.2469
     2.5224   2.6767   2.7379   2.7707   3.1116   3.2493   4.1380   4.4611

          k = 0.5666-0.4906-0.2493 (  8466 PWs)   bands (ev):

   -33.6923 -33.6889 -17.1406 -16.9719 -15.1942 -15.1615 -14.8081 -14.7272
   -14.7109 -14.6204 -13.8949 -13.7548 -13.4323 -13.3672  -3.0885  -2.8144
    -1.5733  -1.3930  -1.2605  -1.2157  -0.9527  -0.8395   1.9579   2.2422
     2.4758   2.6717   2.6946   2.7464   3.1394   3.2388   4.1807   4.4665

          k = 0.4249-0.5724-0.2077 (  8447 PWs)   bands (ev):

   -33.6920 -33.6892 -17.1085 -17.0071 -15.1759 -15.0549 -14.9314 -14.7791
   -14.6975 -14.6441 -13.8468 -13.6346 -13.5193 -13.3872  -3.0124  -2.8705
    -1.5326  -1.4278  -1.2874  -1.2265  -0.9512  -0.8133   2.0456   2.2521
     2.4426   2.5560   2.6684   2.7446   3.1549   3.2444   4.2692   4.4287

          k = 0.5666-0.3271-0.2077 (  8465 PWs)   bands (ev):

   -33.6929 -33.6883 -17.1508 -16.9594 -15.1967 -15.1839 -14.7898 -14.7237
   -14.7228 -14.5898 -13.8975 -13.7733 -13.4239 -13.3692  -3.1116  -2.8216
    -1.5896  -1.3650  -1.2495  -1.2186  -1.0189  -0.8306   1.9644   2.2914
     2.4437   2.7029   2.7234   2.8377   3.0836   3.2649   4.1496   4.4530

          k = 0.4249-0.4089-0.1662 (  8447 PWs)   bands (ev):

   -33.6933 -33.6880 -17.1347 -16.9804 -15.1914 -15.1012 -14.8824 -14.7399
   -14.7098 -14.6234 -13.8676 -13.6627 -13.5020 -13.3823  -3.0765  -2.8845
    -1.5611  -1.3801  -1.2906  -1.2231  -1.0786  -0.7817   2.0610   2.3600
     2.4329   2.6474   2.6842   2.8820   3.0739   3.2891   4.1941   4.4010

          k = 0.4249-0.2453-0.1246 (  8460 PWs)   bands (ev):

   -33.6943 -33.6872 -17.1326 -16.9889 -15.1418 -15.1119 -14.8663 -14.7444
   -14.7232 -14.6692 -13.7961 -13.6712 -13.5034 -13.4189  -3.0865  -2.9578
    -1.5465  -1.3900  -1.3365  -1.2291  -1.1794  -0.7243   2.1761   2.4350
     2.4721   2.6608   2.6882   2.9479   3.0655   3.3410   4.1855   4.3123

          k =-0.0000 0.0000 0.2493 (  8468 PWs)   bands (ev):

   -33.6959 -33.6863 -17.0811 -17.0738 -15.0973 -15.0973 -14.8259 -14.8259
   -14.6558 -14.5730 -13.8223 -13.8223 -13.4236 -13.4236  -3.3017  -3.1025
    -1.5180  -1.5027  -1.5027  -1.3046  -1.3046  -0.5378   2.4068   2.4068
     2.7312   2.7312   3.0293   3.0293   3.4913   3.4913   3.8183   4.1396

          k =-0.1416-0.0818 0.2908 (  8453 PWs)   bands (ev):

   -33.6951 -33.6870 -17.0788 -17.0729 -15.1184 -15.0256 -14.9256 -14.7835
   -14.6685 -14.6044 -13.8327 -13.6967 -13.5093 -13.4130  -3.2565  -3.1079
    -1.5009  -1.4851  -1.3963  -1.3150  -1.3114  -0.6142   2.4282   2.4576
     2.6757   2.6993   2.9308   3.0374   3.3689   3.4377   3.9205   4.1414

          k =-0.2833-0.1635 0.3323 (  8444 PWs)   bands (ev):

   -33.6937 -33.6881 -17.0762 -17.0656 -15.1208 -15.0202 -14.9581 -14.7405
   -14.7258 -14.6294 -13.7963 -13.6000 -13.5933 -13.4212  -3.1687  -3.0639
    -1.4664  -1.4561  -1.3554  -1.3139  -1.1981  -0.7155   2.3952   2.5163
     2.6035   2.6256   2.7574   2.9855   3.1979   3.3084   4.0857   4.1935

          k = 0.8498 0.4906 0.0000 (  8448 PWs)   bands (ev):

   -33.6920 -33.6895 -17.0795 -17.0502 -15.1356 -15.0015 -14.9793 -14.8061
   -14.7018 -14.6313 -13.7702 -13.6112 -13.5743 -13.4270  -3.0969  -2.9659
    -1.4957  -1.4303  -1.3394  -1.2593  -1.0325  -0.8067   2.2399   2.3632
     2.5470   2.6234   2.7080   2.9876   3.0469   3.1917   4.1945   4.2902

          k = 0.7082 0.4089 0.0415 (  8460 PWs)   bands (ev):

   -33.6911 -33.6902 -17.1101 -17.0076 -15.1505 -15.0933 -14.8878 -14.8397
   -14.6955 -14.6121 -13.7469 -13.7305 -13.4702 -13.4367  -3.0702  -2.8695
    -1.5661  -1.3740  -1.3204  -1.1977  -0.9137  -0.9026   2.0542   2.2613
     2.4650   2.6593   2.7198   2.9485   3.0294   3.1611   4.2124   4.3925

          k = 0.5666 0.3271 0.0831 (  8441 PWs)   bands (ev):

   -33.6928 -33.6885 -17.1337 -16.9782 -15.1703 -15.1399 -14.8599 -14.7862
   -14.7072 -14.5975 -13.8306 -13.7039 -13.4680 -13.4054  -3.0771  -2.8569
    -1.5882  -1.3476  -1.2761  -1.2126  -1.0528  -0.8140   2.0102   2.3168
     2.4238   2.6850   2.6920   2.9503   3.0295   3.2306   4.1882   4.4191

          k =-0.1416 0.0818 0.3323 (  8475 PWs)   bands (ev):

   -33.6946 -33.6875 -17.0829 -17.0698 -15.0994 -15.0251 -14.9221 -14.8140
   -14.6532 -14.6298 -13.7813 -13.6952 -13.5091 -13.4474  -3.2441  -3.1318
    -1.4865  -1.4583  -1.3856  -1.3129  -1.3053  -0.6641   2.4376   2.4791
     2.6395   2.6831   2.9678   3.0700   3.3143   3.4390   3.9332   4.1181

          k =-0.2833 0.0000 0.3739 (  8449 PWs)   bands (ev):

   -33.6936 -33.6883 -17.0865 -17.0598 -15.1025 -15.0332 -14.9222 -14.7901
   -14.6935 -14.6485 -13.7543 -13.6585 -13.5373 -13.4555  -3.1709  -3.1142
    -1.4553  -1.4378  -1.3901  -1.3022  -1.1963  -0.7461   2.4274   2.4862
     2.5999   2.6344   2.8616   3.0322   3.1729   3.3534   4.0618   4.1471

          k = 0.8498 0.6542 0.0415 (  8450 PWs)   bands (ev):

   -33.6922 -33.6894 -17.0691 -17.0670 -15.1057 -15.0636 -14.8997 -14.7867
   -14.7245 -14.6618 -13.7450 -13.6621 -13.5283 -13.4477  -3.0965  -3.0301
    -1.4628  -1.4017  -1.3986  -1.2773  -1.0426  -0.8133   2.3131   2.3735
     2.6069   2.6121   2.7256   2.9467   3.0910   3.2355   4.1856   4.2363

          k = 0.7082 0.5724 0.0831 (  8468 PWs)   bands (ev):

   -33.6907 -33.6907 -17.0957 -17.0286 -15.1396 -15.0611 -14.9133 -14.7973
   -14.7046 -14.6606 -13.7668 -13.6831 -13.5013 -13.4258  -3.0611  -2.9109
    -1.5336  -1.3702  -1.3584  -1.2314  -0.9159  -0.8731   2.1231   2.2587
     2.5183   2.6313   2.6951   2.8589   3.1051   3.1717   4.2313   4.3581

          k = 0.5666 0.4906 0.1246 (  8447 PWs)   bands (ev):

   -33.6920 -33.6892 -17.1256 -16.9882 -15.1744 -15.1246 -14.8786 -14.7510
   -14.7130 -14.6193 -13.8483 -13.6997 -13.4733 -13.3883  -3.0638  -2.8403
    -1.5781  -1.3621  -1.2882  -1.2183  -0.9633  -0.8388   1.9988   2.2581
     2.4360   2.6509   2.6948   2.8225   3.1176   3.2068   4.2113   4.4394

          k =-0.2833 0.1635 0.4154 (  8461 PWs)   bands (ev):

   -33.6930 -33.6887 -17.1031 -17.0405 -15.1308 -14.9818 -14.9311 -14.8070
   -14.7058 -14.6506 -13.7546 -13.6368 -13.5436 -13.4617  -3.1425  -3.1038
    -1.4804  -1.4072  -1.3703  -1.2879  -1.1310  -0.8068   2.3968   2.4257
     2.6094   2.6300   2.8628   3.0461   3.0582   3.3442   4.1303   4.1342

          k = 0.8498 0.8177 0.0831 (  8459 PWs)   bands (ev):

   -33.6922 -33.6894 -17.1024 -17.0339 -15.1368 -15.0405 -14.8674 -14.7940
   -14.7238 -14.6744 -13.7517 -13.6855 -13.4943 -13.4566  -3.1046  -3.0251
    -1.4862  -1.4096  -1.3438  -1.2787  -1.0194  -0.8487   2.2757   2.3575
     2.5857   2.6581   2.7932   2.8733   3.0802   3.2711   4.1765   4.2419

          k = 0.7082 0.7360 0.1246 (  8452 PWs)   bands (ev):

   -33.6912 -33.6902 -17.0742 -17.0545 -15.1056 -15.0690 -14.8463 -14.8321
   -14.7198 -14.7145 -13.7335 -13.6825 -13.4891 -13.4555  -3.0013  -2.9853
    -1.4658  -1.4602  -1.3228  -1.2637  -0.9108  -0.8574   2.1846   2.2170
     2.5780   2.6075   2.7106   2.7476   3.1331   3.2000   4.2843   4.3054

          k = 0.5666 0.6542 0.1662 (  8441 PWs)   bands (ev):

   -33.6911 -33.6901 -17.0880 -17.0324 -15.1176 -15.0892 -14.8955 -14.7879
   -14.7158 -14.6970 -13.7699 -13.6887 -13.4802 -13.4244  -2.9910  -2.8951
    -1.5215  -1.4344  -1.2832  -1.2569  -0.8822  -0.8439   2.0762   2.1797
     2.4956   2.5746   2.6651   2.7083   3.1766   3.1975   4.3006   4.3971

          k = 0.8498-0.4906-0.2493 (  8465 PWs)   bands (ev):

   -33.6920 -33.6895 -17.1242 -17.0050 -15.1834 -15.0613 -14.8557 -14.7580
   -14.7264 -14.6340 -13.8149 -13.7273 -13.4682 -13.4094  -3.1329  -2.9353
    -1.5397  -1.3770  -1.2843  -1.2789  -0.9751  -0.8825   2.1558   2.3273
     2.5879   2.6997   2.7189   2.8663   3.0657   3.2546   4.1525   4.3254

          k = 0.7082-0.5724-0.2077 (  8462 PWs)   bands (ev):

   -33.6916 -33.6898 -17.1178 -17.0055 -15.1599 -15.1043 -14.8439 -14.7423
   -14.7193 -14.6825 -13.7739 -13.7651 -13.4422 -13.4211  -3.0851  -2.8870
    -1.5450  -1.3924  -1.2793  -1.2627  -0.9206  -0.8710   2.0741   2.2580
     2.5505   2.6573   2.6887   2.7957   3.1144   3.2092   4.2009   4.3866

          k = 0.7082-0.4089-0.1662 (  8458 PWs)   bands (ev):

   -33.6919 -33.6894 -17.1360 -16.9794 -15.1903 -15.1468 -14.7996 -14.7777
   -14.7127 -14.5983 -13.8219 -13.8044 -13.4096 -13.4042  -3.1077  -2.8305
    -1.5845  -1.3564  -1.2835  -1.2156  -0.9410  -0.8763   1.9934   2.2588
     2.4854   2.6888   2.7098   2.8471   3.0940   3.1982   4.1676   4.4342

          k = 0.0000 0.0000 0.3739 (  8453 PWs)   bands (ev):

   -33.6942 -33.6879 -17.0807 -17.0759 -15.0600 -15.0600 -14.8867 -14.8867
   -14.6402 -14.5862 -13.7397 -13.7397 -13.4832 -13.4832  -3.2835  -3.1579
    -1.4683  -1.4683  -1.3391  -1.3391  -1.3333  -0.6969   2.4644   2.4644
     2.6745   2.6745   3.1034   3.1034   3.4019   3.4019   3.8683   4.0750

          k =-0.1416-0.0818 0.4154 (  8454 PWs)   bands (ev):

   -33.6934 -33.6887 -17.0770 -17.0764 -15.0905 -14.9838 -14.9808 -14.8361
   -14.6508 -14.6075 -13.7629 -13.6283 -13.5743 -13.4610  -3.2416  -3.1528
    -1.4555  -1.4389  -1.3572  -1.3540  -1.2189  -0.7718   2.4715   2.5052
     2.6310   2.6341   3.0105   3.1317   3.2640   3.3608   3.9568   4.0867

          k = 0.9915 0.5724 0.0831 (  8459 PWs)   bands (ev):

   -33.6921 -33.6897 -17.0804 -17.0635 -15.1216 -15.0205 -14.9413 -14.7832
   -14.7021 -14.6257 -13.7757 -13.6090 -13.5848 -13.4393  -3.1712  -3.0791
    -1.4604  -1.3986  -1.3687  -1.3339  -1.0755  -0.8414   2.3896   2.4835
     2.5985   2.6223   2.8217   3.0909   3.1020   3.2503   4.0915   4.1727

          k = 0.8498 0.4906 0.1246 (  8449 PWs)   bands (ev):

   -33.6907 -33.6907 -17.1048 -17.0257 -15.1683 -15.0193 -14.9321 -14.7662
   -14.7214 -14.6255 -13.8067 -13.6708 -13.5168 -13.4102  -3.1216  -2.9470
    -1.5253  -1.3612  -1.3520  -1.2629  -0.9526  -0.8882   2.1898   2.3432
     2.5869   2.6643   2.6834   2.9459   3.0789   3.1853   4.1686   4.3102

          k =-0.1416 0.0818 0.4570 (  8469 PWs)   bands (ev):

   -33.6928 -33.6893 -17.0817 -17.0723 -15.0772 -14.9846 -14.9684 -14.8676
   -14.6353 -14.6268 -13.7246 -13.6121 -13.5855 -13.4932  -3.2240  -3.1775
    -1.4463  -1.4229  -1.3827  -1.3433  -1.1609  -0.8340   2.4912   2.5247
     2.5875   2.6289   3.0498   3.1630   3.2124   3.3473   3.9766   4.0608

          k = 0.9915 0.7360 0.1246 (  8451 PWs)   bands (ev):

   -33.6919 -33.6900 -17.0786 -17.0693 -15.0833 -15.0561 -14.8921 -14.8428
   -14.6666 -14.6505 -13.7137 -13.6736 -13.5252 -13.4901  -3.1602  -3.1409
    -1.4343  -1.4175  -1.3748  -1.3369  -1.0514  -0.8922   2.4491   2.4737
     2.5931   2.6096   2.9449   3.0348   3.1719   3.2664   4.0840   4.1133

          k = 0.8498 0.6542 0.1662 (  8455 PWs)   bands (ev):

   -33.6908 -33.6908 -17.0863 -17.0510 -15.1249 -15.0441 -14.8879 -14.7889
   -14.7167 -14.6748 -13.7513 -13.6678 -13.5177 -13.4498  -3.1052  -3.0277
    -1.4788  -1.4062  -1.3341  -1.3046  -0.9432  -0.9138   2.2895   2.3563
     2.6085   2.6324   2.7718   2.8897   3.1436   3.1920   4.1775   4.2388

          k = 0.9915-0.5724-0.2077 (  8455 PWs)   bands (ev):

   -33.6914 -33.6904 -17.0934 -17.0512 -15.1302 -14.9844 -14.9455 -14.8125
   -14.6927 -14.6337 -13.7644 -13.5988 -13.5866 -13.4540  -3.1625  -3.0931
    -1.4711  -1.3867  -1.3484  -1.3364  -0.9881  -0.9391   2.3908   2.4488
     2.6022   2.6238   2.8916   3.0061   3.1323   3.2566   4.1063   4.1524

          k =-0.0000 0.0000 0.4985 (  8467 PWs)   bands (ev):

   -33.6922 -33.6900 -17.0797 -17.0781 -15.0102 -15.0102 -14.9507 -14.9507
   -14.6217 -14.6030 -13.6486 -13.6486 -13.5603 -13.5603  -3.2534  -3.2107
    -1.4261  -1.4261  -1.3813  -1.3813  -1.1176  -0.8973   2.5339   2.5339
     2.6067   2.6067   3.1955   3.1955   3.2987   3.2987   3.9315   4.0027

          k = 1.1331 0.6542 0.1662 (  8460 PWs)   bands (ev):

   -33.6913 -33.6907 -17.0795 -17.0748 -15.0574 -15.0229 -14.9346 -14.8935
   -14.6351 -14.6188 -13.6884 -13.6370 -13.5670 -13.5201  -3.2154  -3.1932
    -1.4257  -1.3928  -1.3927  -1.3827  -1.0282  -0.9618   2.5208   2.5474
     2.5770   2.5876   3.1006   3.1592   3.2311   3.2724   4.0049   4.0294

     highest occupied level (ev):     4.4761

!    total energy              =    -367.43352675 Ry
     Harris-Foulkes estimate   =    -367.43353042 Ry
     estimated scf accuracy    <       0.00000580 Ry

     The total energy is the sum of the following terms:

     one-electron contribution =    -148.12347686 Ry
     hartree contribution      =     103.42635920 Ry
     xc contribution           =     -75.26304544 Ry
     ewald contribution        =    -247.47336365 Ry

     convergence has been achieved in   7 iterations

     Forces acting on atoms (cartesian axes, Ry/au):

     atom    1 type  1   force =    -0.00000000   -0.00000000    0.00000000
     atom    2 type  1   force =     0.00000000    0.00000000    0.00000000
     atom    3 type  2   force =     0.00000000    0.00000000    0.00000000
     atom    4 type  2   force =     0.00000000   -0.00000000    0.00000000
     atom    5 type  3   force =    -0.00001209    0.00002095    0.00000000
     atom    6 type  3   force =     0.00002419   -0.00000000   -0.00000000
     atom    7 type  3   force =    -0.00001209   -0.00002095   -0.00000000
     atom    8 type  3   force =    -0.00002419    0.00000000    0.00000000
     atom    9 type  3   force =     0.00001209    0.00002095    0.00000000
     atom   10 type  3   force =     0.00001209   -0.00002095   -0.00000000

     Total force =     0.000059     Total SCF correction =     0.000320
     SCF correction compared to forces is large: reduce conv_thr to get better values


     Computing stress (Cartesian axis) and pressure

          total   stress  (Ry/bohr**3)                   (kbar)     P=   -3.49
  -0.00002492  -0.00000000   0.00000000         -3.67     -0.00      0.00
   0.00000000  -0.00002492  -0.00000000          0.00     -3.67     -0.00
  -0.00000000  -0.00000000  -0.00002137         -0.00     -0.00     -3.14


     number of scf cycles    =   2
     number of bfgs steps    =   1

     enthalpy old            =    -367.4372216768 Ry
     enthalpy new            =    -367.4335267538 Ry

     CASE: enthalpy_new > enthalpy_old

     new trust radius        =       0.0000016567 bohr

     trust_radius < trust_radius_min

     resetting bfgs history

     new conv_thr            =       0.0000100000 Ry

     new unit-cell volume =    855.22848 a.u.^3 (   126.73178 Ang^3 )
     density =      2.62288 g/cm^3

CELL_PARAMETERS (alat= 12.16200000)
   0.392157360  -0.226412157   0.892392257
   0.000000000   0.452824314   0.892392257
  -0.392157360  -0.226412157   0.892392257

ATOMIC_POSITIONS (crystal)
Ca       0.500000000   0.500000000   0.500000000
Ca      -0.000000000  -0.000000000   0.000000000
C        0.250000000   0.250000000   0.250000000
C        0.750000000   0.750000000   0.750000000
O        0.506843782   0.993156218   0.250000000
O        0.993156218   0.250000000   0.506843782
O        0.250000000   0.506843782   0.993156218
O        0.006843782   0.750000000   0.493156218
O        0.750000000   0.493156218   0.006843782
O        0.493156218   0.006843782   0.750000000



     Writing output data file CCO_ener.save/
     NEW-OLD atomic charge density approx. for the potential

     Check: negative core charge=   -0.000003
     extrapolated charge   64.03416, renormalised to   64.00000

     total cpu time spent up to now is      256.6 secs

     Self-consistent Calculation

     iteration #  1     ecut=    70.00 Ry     beta= 0.70
     CG style diagonalization
     ethr =  1.00E-06,  avg # of iterations =  3.0

     Threshold (ethr) on eigenvalues was too large:
     Diagonalizing with lowered threshold

     CG style diagonalization
     c_bands:  1 eigenvalues not converged
     c_bands:  1 eigenvalues not converged
     c_bands:  1 eigenvalues not converged
     c_bands:  1 eigenvalues not converged
     c_bands:  1 eigenvalues not converged
     c_bands:  1 eigenvalues not converged
     c_bands:  1 eigenvalues not converged
     c_bands:  2 eigenvalues not converged
     ethr =  1.08E-08,  avg # of iterations =  4.5

     total cpu time spent up to now is      323.1 secs

     End of self-consistent calculation

          k = 0.0000 0.0000 0.0000 (  8387 PWs)   bands (ev):

   -33.6856 -33.6730 -17.0838 -17.0743 -15.1194 -15.1194 -14.7536 -14.7536
   -14.6604 -14.5533 -13.9023 -13.9023 -13.3707 -13.3707  -3.3117  -3.0378
    -1.6952  -1.5326  -1.5326  -1.2736  -1.2736  -0.4078   2.3594   2.3594
     2.7916   2.7916   2.9637   2.9637   3.5767   3.5767   3.7800   4.2069

          k =-0.1417-0.0818 0.0415 (  8452 PWs)   bands (ev):

   -33.6851 -33.6734 -17.0840 -17.0704 -15.1187 -15.0806 -14.7935 -14.7516
   -14.6755 -14.6201 -13.8758 -13.8008 -13.4204 -13.3798  -3.2616  -3.0447
    -1.6495  -1.5134  -1.4933  -1.2959  -1.2663  -0.4609   2.3840   2.4156
     2.7358   2.7769   2.8694   2.9157   3.4970   3.5152   3.8925   4.2113

          k =-0.2833-0.1636 0.0830 (  8452 PWs)   bands (ev):

   -33.6839 -33.6743 -17.1005 -17.0422 -15.1172 -15.0103 -14.9182 -14.7623
   -14.6849 -14.6623 -13.8095 -13.6413 -13.5333 -13.4075  -3.1416  -3.0465
    -1.5623  -1.4601  -1.3833  -1.3204  -1.2611  -0.5841   2.4240   2.5027
     2.6171   2.6471   2.7802   2.7878   3.3490   3.3802   4.0966   4.2235

          k =-0.4250-0.2454 0.1245 (  8463 PWs)   bands (ev):

   -33.6821 -33.6758 -17.1015 -17.0275 -15.1075 -15.0011 -14.9842 -14.8292
   -14.6630 -14.6455 -13.7287 -13.6124 -13.5524 -13.4570  -3.0207  -3.0178
    -1.5399  -1.4146  -1.2760  -1.2705  -1.2075  -0.7137   2.2886   2.3639
     2.5741   2.5975   2.7238   2.8288   3.2008   3.2346   4.2496   4.2643

          k =-0.5667-0.3272 0.1660 (  8451 PWs)   bands (ev):

   -33.6799 -33.6778 -17.0780 -17.0441 -15.0496 -15.0120 -14.9971 -14.9364
   -14.6500 -14.6344 -13.6391 -13.5950 -13.5515 -13.5362  -2.9716  -2.9594
    -1.5260  -1.4641  -1.2398  -1.2294  -1.0100  -0.8430   2.1532   2.2115
     2.5367   2.5655   2.8084   2.8598   3.1114   3.1259   4.2973   4.3263

          k =-0.1417 0.0818 0.0830 (  8447 PWs)   bands (ev):

   -33.6850 -33.6735 -17.0850 -17.0697 -15.0989 -15.0965 -14.7904 -14.7544
   -14.6703 -14.6372 -13.8390 -13.8223 -13.4072 -13.4004  -3.2593  -3.0516
    -1.6341  -1.5072  -1.4976  -1.3004  -1.2640  -0.4718   2.3846   2.4211
     2.7405   2.7439   2.8960   2.9220   3.4690   3.5318   3.8936   4.2053

          k =-0.2833 0.0000 0.1245 (  8453 PWs)   bands (ev):

   -33.6841 -33.6742 -17.0986 -17.0486 -15.1028 -15.0500 -14.8560 -14.7588
   -14.7003 -14.6657 -13.8005 -13.7031 -13.4851 -13.4147  -3.1723  -3.0593
    -1.5599  -1.4754  -1.4213  -1.3219  -1.2536  -0.5659   2.4151   2.4932
     2.6230   2.7122   2.7672   2.8663   3.3428   3.4447   4.0454   4.2107

          k =-0.4250-0.0818 0.1660 (  8463 PWs)   bands (ev):

   -33.6825 -33.6754 -17.1030 -17.0315 -15.1011 -15.0594 -14.8982 -14.8110
   -14.6688 -14.6647 -13.7280 -13.6902 -13.4952 -13.4523  -3.0584  -3.0352
    -1.5229  -1.4176  -1.3573  -1.2494  -1.2331  -0.6835   2.3493   2.4525
     2.5374   2.6134   2.7256   2.8232   3.1969   3.3155   4.2182   4.2393

          k =-0.5667-0.1636 0.2075 (  8446 PWs)   bands (ev):

   -33.6806 -33.6771 -17.0830 -17.0420 -15.0901 -15.0457 -14.9275 -14.8953
   -14.6541 -14.6433 -13.7011 -13.6437 -13.5184 -13.4757  -2.9828  -2.9750
    -1.5116  -1.4516  -1.2921  -1.2317  -1.0520  -0.7938   2.1996   2.2794
     2.5124   2.5497   2.7576   2.8419   3.1113   3.2042   4.2955   4.3152

          k = 0.5667 0.4907-0.1245 (  8453 PWs)   bands (ev):

   -33.6791 -33.6785 -17.0758 -17.0450 -15.0829 -15.0214 -14.9836 -14.9008
   -14.6561 -14.6325 -13.6939 -13.6139 -13.5429 -13.4781  -2.9749  -2.9243
    -1.5259  -1.4617  -1.2582  -1.2122  -0.9337  -0.8908   2.1328   2.2011
     2.4836   2.5447   2.7731   2.8379   3.1186   3.1538   4.3092   4.3588

          k = 0.4250 0.4090-0.0830 (  8445 PWs)   bands (ev):

   -33.6812 -33.6766 -17.1064 -17.0155 -15.1290 -15.0267 -14.9736 -14.8230
   -14.6748 -14.6207 -13.7529 -13.6202 -13.5306 -13.4468  -3.0121  -2.9419
    -1.5540  -1.3940  -1.2780  -1.2257  -1.1208  -0.7716   2.1541   2.3381
     2.4834   2.5774   2.7014   2.8715   3.1358   3.2169   4.2608   4.3528

          k = 0.2833 0.3272-0.0415 (  8459 PWs)   bands (ev):

   -33.6830 -33.6750 -17.1138 -17.0185 -15.1119 -15.0578 -14.9028 -14.7853
   -14.6899 -14.6577 -13.7458 -13.6805 -13.4938 -13.4458  -3.0456  -3.0401
    -1.5442  -1.4057  -1.3296  -1.3002  -1.2385  -0.6617   2.3370   2.4683
     2.5491   2.6396   2.6520   2.8315   3.2277   3.3335   4.2269   4.2368

          k = 0.1417 0.2454 0.0000 (  8469 PWs)   bands (ev):

   -33.6844 -33.6739 -17.0998 -17.0466 -15.1001 -15.0606 -14.8131 -14.7972
   -14.6892 -14.6724 -13.8061 -13.7139 -13.4739 -13.4112  -3.1719  -3.0504
    -1.5846  -1.4767  -1.4338  -1.3262  -1.2472  -0.5415   2.4145   2.4952
     2.6195   2.7467   2.7536   2.8233   3.3765   3.4480   4.0431   4.2199

          k =-0.2833 0.1636 0.1660 (  8445 PWs)   bands (ev):

   -33.6836 -33.6746 -17.1114 -17.0327 -15.0836 -15.0676 -14.8142 -14.7915
   -14.7312 -14.6790 -13.7395 -13.7063 -13.4799 -13.4528  -3.1177  -3.0814
    -1.4974  -1.4647  -1.4456  -1.2841  -1.2407  -0.6215   2.4282   2.4313
     2.6235   2.6418   2.7603   2.9101   3.2400   3.4419   4.1122   4.1951

          k =-0.4250 0.0818 0.2075 (  8457 PWs)   bands (ev):

   -33.6825 -33.6754 -17.1207 -17.0140 -15.1227 -15.0639 -14.8463 -14.7895
   -14.6956 -14.6790 -13.7576 -13.6820 -13.4904 -13.4416  -3.0768  -3.0212
    -1.5019  -1.4199  -1.3930  -1.2283  -1.1980  -0.7091   2.2894   2.4220
     2.5539   2.6420   2.7139   2.9038   3.1098   3.3672   4.2029   4.2487

          k =-0.5667 0.0000 0.2490 (  8460 PWs)   bands (ev):

   -33.6810 -33.6767 -17.1066 -17.0200 -15.1482 -15.0212 -14.9221 -14.8133
   -14.6762 -14.6475 -13.7992 -13.6039 -13.5460 -13.4148  -3.0202  -2.9492
    -1.5008  -1.4265  -1.3521  -1.2184  -1.0499  -0.7807   2.1649   2.3297
     2.5061   2.5598   2.7006   2.8422   3.0872   3.2792   4.2599   4.3507

          k = 0.5667 0.6543-0.0830 (  8445 PWs)   bands (ev):

   -33.6793 -33.6783 -17.0671 -17.0554 -15.1193 -15.0214 -14.9478 -14.8545
   -14.6724 -14.6495 -13.7543 -13.6427 -13.5124 -13.4321  -2.9408  -2.9366
    -1.5029  -1.4555  -1.3192  -1.2059  -0.9088  -0.8615   2.1494   2.1897
     2.4636   2.5015   2.7067   2.7611   3.1419   3.2225   4.3525   4.3607

          k = 0.4250 0.5725-0.0415 (  8447 PWs)   bands (ev):

   -33.6800 -33.6776 -17.0962 -17.0229 -15.1390 -15.0384 -14.9786 -14.7812
   -14.6901 -14.6257 -13.7933 -13.6358 -13.5169 -13.4108  -2.9827  -2.8923
    -1.5543  -1.3832  -1.3081  -1.2086  -0.9982  -0.8139   2.1049   2.2705
     2.4209   2.5062   2.6854   2.7884   3.1832   3.2007   4.3041   4.4108

          k = 0.2833 0.4907 0.0000 (  8451 PWs)   bands (ev):

   -33.6817 -33.6761 -17.1174 -17.0040 -15.1599 -15.0345 -14.9634 -14.7452
   -14.7046 -14.6171 -13.8095 -13.6348 -13.5183 -13.4100  -3.0279  -2.9339
    -1.5577  -1.3633  -1.2944  -1.2280  -1.1685  -0.7461   2.1663   2.4399
     2.4475   2.5337   2.6498   2.8599   3.1598   3.2619   4.2508   4.3669

          k =-0.4250 0.2454 0.2490 (  8463 PWs)   bands (ev):

   -33.6821 -33.6758 -17.1405 -16.9878 -15.1462 -15.1201 -14.7911 -14.7328
   -14.7118 -14.6824 -13.7937 -13.7349 -13.4544 -13.4142  -3.1094  -2.9365
    -1.5378  -1.3902  -1.3499  -1.2134  -1.1234  -0.7721   2.1505   2.3829
     2.5000   2.7107   2.7180   2.9644   2.9931   3.3519   4.1685   4.3343

          k =-0.5667 0.1636 0.2905 (  8463 PWs)   bands (ev):

   -33.6812 -33.6766 -17.1400 -16.9822 -15.1841 -15.1142 -14.8091 -14.7476
   -14.6882 -14.6370 -13.8690 -13.7132 -13.4581 -13.3771  -3.0889  -2.8690
    -1.5462  -1.4006  -1.3126  -1.2016  -1.0250  -0.8142   2.0441   2.3084
     2.4833   2.6825   2.7112   2.8093   3.0783   3.2986   4.1869   4.4172

          k = 0.5667 0.8179-0.0415 (  8446 PWs)   bands (ev):

   -33.6800 -33.6776 -17.1095 -17.0129 -15.1623 -15.0597 -14.8655 -14.7994
   -14.7001 -14.6457 -13.8310 -13.6647 -13.4861 -13.3919  -3.0095  -2.8670
    -1.4991  -1.4577  -1.3304  -1.1962  -0.9200  -0.8308   2.0385   2.2272
     2.4845   2.5732   2.6783   2.6996   3.1531   3.2537   4.2764   4.4341

          k = 0.4250 0.7361 0.0000 (  8457 PWs)   bands (ev):

   -33.6788 -33.6788 -17.0610 -17.0608 -15.1076 -15.0730 -14.9073 -14.8191
   -14.7083 -14.6508 -13.7288 -13.7221 -13.4483 -13.4451  -2.9217  -2.9212
    -1.5220  -1.4113  -1.3551  -1.1979  -0.8915  -0.8449   2.1360   2.1475
     2.4636   2.4815   2.6639   2.7007   3.1856   3.2292   4.3771   4.3807

          k =-0.5667 0.3272 0.3320 (  8481 PWs)   bands (ev):

   -33.6810 -33.6767 -17.1590 -16.9564 -15.1993 -15.1931 -14.7393 -14.7183
   -14.6868 -14.5844 -13.9187 -13.8187 -13.3945 -13.3542  -3.1256  -2.8013
    -1.5860  -1.3775  -1.2661  -1.1894  -0.9879  -0.8567   1.9477   2.2600
     2.5001   2.7303   2.7368   2.7450   3.1114   3.2762   4.1383   4.4748

          k = 0.5667 0.9815 0.0000 (  8456 PWs)   bands (ev):

   -33.6806 -33.6770 -17.1476 -16.9693 -15.1926 -15.1664 -14.7636 -14.7124
   -14.7093 -14.6103 -13.9089 -13.7742 -13.4141 -13.3577  -3.0931  -2.8019
    -1.5670  -1.4048  -1.2796  -1.1878  -0.9506  -0.8472   1.9461   2.2366
     2.5079   2.6697   2.7036   2.7129   3.1490   3.2556   4.1766   4.4831

          k = 0.0000-0.0000 0.1245 (  8465 PWs)   bands (ev):

   -33.6852 -33.6734 -17.0838 -17.0749 -15.1117 -15.1117 -14.7710 -14.7710
   -14.6567 -14.5561 -13.8799 -13.8799 -13.3836 -13.3836  -3.3090  -3.0553
    -1.6494  -1.5248  -1.5248  -1.2814  -1.2814  -0.4427   2.3726   2.3726
     2.7759   2.7759   2.9828   2.9828   3.5550   3.5550   3.7911   4.1903

          k =-0.1417-0.0818 0.1660 (  8460 PWs)   bands (ev):

   -33.6845 -33.6740 -17.0828 -17.0724 -15.1225 -15.0537 -14.8533 -14.7447
   -14.6727 -14.6031 -13.8728 -13.7553 -13.4546 -13.3833  -3.2607  -3.0655
    -1.5927  -1.5053  -1.4663  -1.3013  -1.2839  -0.5116   2.4006   2.4292
     2.7128   2.7623   2.8756   2.9662   3.4587   3.4871   3.9030   4.1898

          k =-0.2833-0.1636 0.2075 (  8460 PWs)   bands (ev):

   -33.6831 -33.6751 -17.0905 -17.0539 -15.1192 -14.9760 -14.9745 -14.7428
   -14.6984 -14.6363 -13.8111 -13.6120 -13.5681 -13.4067  -3.1556  -3.0488
    -1.5290  -1.4578  -1.3480  -1.2943  -1.2869  -0.6312   2.4109   2.5309
     2.6078   2.6374   2.7489   2.8727   3.3005   3.3475   4.0923   4.2164

          k =-0.4250-0.2454 0.2490 (  8450 PWs)   bands (ev):

   -33.6813 -33.6766 -17.0779 -17.0541 -15.0900 -15.0393 -14.9488 -14.8400
   -14.6662 -14.6393 -13.7228 -13.6229 -13.5579 -13.4508  -3.0593  -2.9876
    -1.4976  -1.4546  -1.3108  -1.2659  -1.1221  -0.7491   2.3035   2.3463
     2.5524   2.5926   2.7631   2.8567   3.1487   3.2117   4.2321   4.2744

          k = 0.7083 0.4090-0.0830 (  8442 PWs)   bands (ev):

   -33.6792 -33.6785 -17.0797 -17.0436 -15.0847 -15.0191 -14.9683 -14.9094
   -14.6619 -14.6248 -13.6715 -13.6304 -13.5464 -13.4837  -3.0164  -2.9161
    -1.5256  -1.4583  -1.2770  -1.2077  -0.9520  -0.8802   2.1322   2.2227
     2.5022   2.6003   2.7781   2.9225   3.0478   3.1446   4.2717   4.3499

          k = 0.5667 0.3272-0.0415 (  8445 PWs)   bands (ev):

   -33.6806 -33.6771 -17.1098 -17.0097 -15.1150 -15.0700 -14.9322 -14.8566
   -14.6755 -14.6084 -13.7369 -13.6240 -13.5243 -13.4608  -3.0261  -2.9027
    -1.5694  -1.3901  -1.2770  -1.1965  -1.0584  -0.8204   2.0782   2.2809
     2.4747   2.6323   2.7249   2.9517   3.0473   3.1853   4.2446   4.3793

          k = 0.4250 0.2454 0.0000 (  8446 PWs)   bands (ev):

   -33.6825 -33.6754 -17.1211 -17.0057 -15.1296 -15.0464 -14.9313 -14.7852
   -14.6893 -14.6412 -13.7686 -13.6020 -13.5563 -13.4333  -3.0508  -2.9841
    -1.5538  -1.3927  -1.2874  -1.2562  -1.2292  -0.7082   2.2274   2.4113
     2.5484   2.6414   2.6495   2.8949   3.1514   3.3013   4.2213   4.2943

          k = 0.2833 0.1636 0.0415 (  8460 PWs)   bands (ev):

   -33.6841 -33.6741 -17.1078 -17.0348 -15.1001 -15.0485 -14.8541 -14.7807
   -14.6954 -14.6846 -13.7840 -13.6740 -13.5025 -13.4231  -3.1282  -3.0578
    -1.5519  -1.4568  -1.4326  -1.3076  -1.2438  -0.5813   2.4311   2.4627
     2.6330   2.6417   2.7414   2.8451   3.3115   3.4299   4.1031   4.2162

          k =-0.1417 0.0818 0.2075 (  8456 PWs)   bands (ev):

   -33.6842 -33.6743 -17.0856 -17.0705 -15.1003 -15.0642 -14.8482 -14.7618
   -14.6594 -14.6339 -13.8147 -13.7732 -13.4437 -13.4157  -3.2534  -3.0836
    -1.5545  -1.4877  -1.4749  -1.3134  -1.2774  -0.5435   2.4037   2.4447
     2.6943   2.7272   2.9158   2.9916   3.4062   3.5058   3.9085   4.1733

          k =-0.2833 0.0000 0.2490 (  8462 PWs)   bands (ev):

   -33.6832 -33.6751 -17.0949 -17.0542 -15.1030 -15.0296 -14.8999 -14.7361
   -14.7166 -14.6505 -13.7825 -13.6769 -13.5120 -13.4278  -3.1721  -3.0823
    -1.5010  -1.4674  -1.3974  -1.2945  -1.2707  -0.6376   2.4192   2.4912
     2.6213   2.6691   2.8026   2.9461   3.2659   3.4168   4.0531   4.1860

          k =-0.4250-0.0818 0.2905 (  8453 PWs)   bands (ev):

   -33.6816 -33.6764 -17.0885 -17.0494 -15.0817 -15.0749 -14.8916 -14.8056
   -14.6921 -14.6517 -13.7302 -13.6771 -13.5121 -13.4485  -3.0776  -3.0296
    -1.4755  -1.4334  -1.3845  -1.2606  -1.1431  -0.7370   2.3402   2.4100
     2.5763   2.6030   2.7293   2.8977   3.1245   3.2895   4.2045   4.2414

          k = 0.7083 0.5725-0.0415 (  8461 PWs)   bands (ev):

   -33.6798 -33.6779 -17.0707 -17.0571 -15.1060 -15.0200 -14.9486 -14.8573
   -14.6708 -14.6445 -13.7345 -13.6042 -13.5629 -13.4437  -3.0232  -2.9389
    -1.5031  -1.4416  -1.3336  -1.2214  -0.9799  -0.8319   2.1853   2.2575
     2.5045   2.5855   2.7357   2.8835   3.0721   3.1948   4.2752   4.3314

          k = 0.5667 0.4907 0.0000 (  8430 PWs)   bands (ev):

   -33.6797 -33.6779 -17.1044 -17.0155 -15.1320 -15.0591 -14.9470 -14.8156
   -14.6816 -14.6162 -13.7757 -13.6266 -13.5296 -13.4234  -3.0219  -2.8763
    -1.5647  -1.3808  -1.3094  -1.1946  -0.9650  -0.8577   2.0620   2.2505
     2.4396   2.6060   2.7218   2.8694   3.0991   3.1813   4.2610   4.4062

          k = 0.4250 0.4090 0.0415 (  8457 PWs)   bands (ev):

   -33.6815 -33.6762 -17.1249 -16.9950 -15.1647 -15.0572 -14.9376 -14.7559
   -14.6992 -14.6094 -13.8217 -13.6081 -13.5433 -13.4030  -3.0459  -2.9065
    -1.5688  -1.3613  -1.2804  -1.2294  -1.1304  -0.7699   2.1033   2.3849
     2.4351   2.6174   2.6708   2.9049   3.1030   3.2578   4.2278   4.3852

          k = 0.2833 0.3272 0.0830 (  8459 PWs)   bands (ev):

   -33.6830 -33.6750 -17.1200 -17.0124 -15.1156 -15.0673 -14.8818 -14.7700
   -14.7010 -14.6673 -13.7574 -13.6755 -13.4961 -13.4391  -3.0599  -3.0275
    -1.5338  -1.3996  -1.3790  -1.2624  -1.2287  -0.6711   2.3120   2.4556
     2.5782   2.5977   2.6778   2.8651   3.1871   3.3609   4.2177   4.2435

          k =-0.2833 0.1636 0.2905 (  8451 PWs)   bands (ev):

   -33.6826 -33.6755 -17.1107 -17.0358 -15.1095 -15.0228 -14.8652 -14.7719
   -14.7320 -14.6621 -13.7338 -13.6858 -13.4938 -13.4662  -3.1112  -3.1094
    -1.4797  -1.4279  -1.4222  -1.2552  -1.2357  -0.7007   2.4116   2.4231
     2.6170   2.6406   2.8048   2.9823   3.1464   3.4129   4.1246   4.1660

          k =-0.4250 0.0818 0.3320 (  8459 PWs)   bands (ev):

   -33.6816 -33.6764 -17.1155 -17.0226 -15.1301 -15.0464 -14.8373 -14.7919
   -14.7198 -14.6646 -13.7517 -13.6896 -13.4816 -13.4523  -3.0920  -3.0203
    -1.4848  -1.4191  -1.3814  -1.2429  -1.1186  -0.7717   2.2778   2.3833
     2.5655   2.6680   2.7495   2.9266   3.0481   3.3379   4.1899   4.2500

          k = 0.7083 0.7361 0.0000 (  8452 PWs)   bands (ev):

   -33.6803 -33.6775 -17.0936 -17.0372 -15.1282 -15.0304 -14.8790 -14.8286
   -14.6890 -14.6776 -13.7730 -13.6299 -13.5241 -13.4282  -3.0108  -2.9648
    -1.4598  -1.4545  -1.3693  -1.2257  -0.9778  -0.8173   2.1706   2.2688
     2.5383   2.5940   2.7106   2.8060   3.0849   3.2553   4.2729   4.3330

          k = 0.5667 0.6543 0.0415 (  8447 PWs)   bands (ev):

   -33.6788 -33.6788 -17.0737 -17.0506 -15.1144 -15.0383 -14.9399 -14.8057
   -14.7002 -14.6628 -13.7602 -13.6521 -13.5065 -13.4247  -2.9658  -2.9124
    -1.5254  -1.3979  -1.3573  -1.2109  -0.8828  -0.8662   2.1243   2.1725
     2.4717   2.5484   2.6863   2.7456   3.1486   3.2146   4.3332   4.3795

          k = 0.4250 0.5725 0.0830 (  8440 PWs)   bands (ev):

   -33.6802 -33.6774 -17.1058 -17.0132 -15.1583 -15.0349 -14.9717 -14.7432
   -14.7061 -14.6265 -13.8292 -13.6161 -13.5330 -13.3908  -2.9992  -2.8756
    -1.5574  -1.3777  -1.2998  -1.2243  -0.9918  -0.8086   2.0735   2.2755
     2.4181   2.5359   2.6721   2.7824   3.1686   3.2242   4.2865   4.4276

          k = 0.2833 0.4907 0.1245 (  8456 PWs)   bands (ev):

   -33.6815 -33.6762 -17.1147 -17.0082 -15.1576 -15.0289 -14.9526 -14.7751
   -14.6862 -14.6252 -13.8086 -13.6225 -13.5289 -13.4103  -3.0260  -2.9380
    -1.5422  -1.3876  -1.3105  -1.2313  -1.1229  -0.7553   2.1653   2.3924
     2.4794   2.5373   2.6697   2.8558   3.1312   3.2740   4.2529   4.3627

          k =-0.4250 0.2454 0.3735 (  8456 PWs)   bands (ev):

   -33.6812 -33.6766 -17.1377 -16.9935 -15.1706 -15.0916 -14.7726 -14.7507
   -14.7348 -14.6486 -13.7875 -13.7689 -13.4309 -13.4223  -3.1260  -2.9292
    -1.5398  -1.3865  -1.3216  -1.2291  -1.0570  -0.8260   2.1440   2.3409
     2.5492   2.7222   2.7481   2.8711   3.0302   3.3221   4.1566   4.3387

          k = 0.7083 0.8997 0.0415 (  8459 PWs)   bands (ev):

   -33.6806 -33.6772 -17.1343 -16.9911 -15.1705 -15.1174 -14.7863 -14.7371
   -14.7062 -14.6654 -13.8307 -13.7532 -13.4301 -13.3975  -3.0922  -2.8701
    -1.5433  -1.4033  -1.3002  -1.2204  -0.9724  -0.8431   2.0485   2.2737
     2.5346   2.6947   2.7101   2.7574   3.0931   3.2710   4.1894   4.4120

          k = 0.5667 0.8179 0.0830 (  8453 PWs)   bands (ev):

   -33.6797 -33.6779 -17.1025 -17.0217 -15.1391 -15.0753 -14.8393 -14.8077
   -14.7088 -14.6713 -13.7960 -13.6903 -13.4667 -13.4102  -3.0022  -2.8756
    -1.5009  -1.4581  -1.3153  -1.2177  -0.8970  -0.8387   2.0486   2.2014
     2.5126   2.5792   2.6651   2.6900   3.1630   3.2340   4.2876   4.4232

          k = 0.4250 0.7361 0.1245 (  8422 PWs)   bands (ev):

   -33.6788 -33.6788 -17.0610 -17.0608 -15.1004 -15.0835 -14.8869 -14.8447
   -14.6889 -14.6617 -13.7271 -13.7238 -13.4475 -13.4459  -2.9216  -2.9213
    -1.5054  -1.4595  -1.2969  -1.2280  -0.8779  -0.8549   2.1388   2.1445
     2.4682   2.4771   2.6724   2.6908   3.1972   3.2189   4.3780   4.3798

          k = 0.2833 0.6543 0.1660 (  8442 PWs)   bands (ev):

   -33.6797 -33.6779 -17.0828 -17.0376 -15.1231 -15.0430 -14.9468 -14.8444
   -14.6668 -14.6380 -13.7597 -13.6526 -13.5021 -13.4319  -2.9610  -2.9151
    -1.5193  -1.4519  -1.2624  -1.2372  -0.9580  -0.8352   2.1330   2.2371
     2.4536   2.4782   2.7065   2.7707   3.1659   3.2103   4.3266   4.3875

          k = 0.7083-0.4090-0.2905 (  8471 PWs)   bands (ev):

   -33.6807 -33.6770 -17.1540 -16.9635 -15.2014 -15.1758 -14.7394 -14.7181
   -14.7095 -14.5855 -13.8896 -13.8303 -13.3878 -13.3679  -3.1243  -2.8045
    -1.5868  -1.3748  -1.2486  -1.2147  -0.9638  -0.8690   1.9578   2.2503
     2.5243   2.6796   2.7414   2.7739   3.1141   3.2513   4.1452   4.4680

          k = 0.5667-0.4907-0.2490 (  8466 PWs)   bands (ev):

   -33.6805 -33.6771 -17.1424 -16.9749 -15.1864 -15.1534 -14.7992 -14.7179
   -14.7015 -14.6124 -13.8928 -13.7526 -13.4291 -13.3639  -3.0846  -2.8109
    -1.5726  -1.3930  -1.2616  -1.2157  -0.9556  -0.8441   1.9604   2.2455
     2.4779   2.6748   2.6977   2.7493   3.1419   3.2408   4.1879   4.4735

          k = 0.4250-0.5725-0.2075 (  8447 PWs)   bands (ev):

   -33.6802 -33.6774 -17.1105 -17.0098 -15.1681 -15.0469 -14.9232 -14.7703
   -14.6882 -14.6356 -13.8445 -13.6319 -13.5161 -13.3838  -3.0084  -2.8669
    -1.5323  -1.4278  -1.2880  -1.2263  -0.9545  -0.8180   2.0485   2.2555
     2.4449   2.5589   2.6714   2.7469   3.1573   3.2466   4.2764   4.4357

          k = 0.5667-0.3272-0.2075 (  8465 PWs)   bands (ev):

   -33.6811 -33.6765 -17.1526 -16.9626 -15.1888 -15.1756 -14.7807 -14.7144
   -14.7135 -14.5816 -13.8953 -13.7712 -13.4207 -13.3658  -3.1078  -2.8183
    -1.5889  -1.3648  -1.2511  -1.2185  -1.0211  -0.8356   1.9668   2.2947
     2.4461   2.7062   2.7269   2.8400   3.0860   3.2669   4.1567   4.4598

          k = 0.4250-0.4090-0.1660 (  8447 PWs)   bands (ev):

   -33.6815 -33.6762 -17.1366 -16.9834 -15.1834 -15.0930 -14.8739 -14.7309
   -14.7004 -14.6150 -13.8655 -13.6601 -13.4989 -13.3789  -3.0727  -2.8813
    -1.5606  -1.3799  -1.2918  -1.2229  -1.0809  -0.7869   2.0637   2.3634
     2.4354   2.6510   2.6876   2.8842   3.0762   3.2912   4.2011   4.4078

          k = 0.4250-0.2454-0.1245 (  8460 PWs)   bands (ev):

   -33.6825 -33.6754 -17.1346 -16.9919 -15.1338 -15.1035 -14.8577 -14.7357
   -14.7140 -14.6604 -13.7937 -13.6686 -13.5003 -13.4157  -3.0828  -2.9550
    -1.5462  -1.3896  -1.3387  -1.2286  -1.1804  -0.7300   2.1790   2.4382
     2.4752   2.6644   2.6920   2.9504   3.0676   3.3431   4.1922   4.3187

          k = 0.0000-0.0000 0.2490 (  8468 PWs)   bands (ev):

   -33.6841 -33.6745 -17.0837 -17.0765 -15.0887 -15.0887 -14.8168 -14.8168
   -14.6463 -14.5643 -13.8199 -13.8199 -13.4211 -13.4211  -3.2997  -3.0998
    -1.5225  -1.5022  -1.5022  -1.3040  -1.3040  -0.5442   2.4107   2.4107
     2.7356   2.7356   3.0333   3.0333   3.4941   3.4941   3.8234   4.1446

          k =-0.1417-0.0818 0.2905 (  8453 PWs)   bands (ev):

   -33.6833 -33.6752 -17.0814 -17.0755 -15.1099 -15.0170 -14.9169 -14.7743
   -14.6591 -14.5957 -13.8304 -13.6938 -13.5068 -13.4103  -3.2543  -3.1050
    -1.5026  -1.4846  -1.3980  -1.3144  -1.3114  -0.6203   2.4321   2.4614
     2.6799   2.7035   2.9346   3.0410   3.3716   3.4403   3.9258   4.1468

          k =-0.2833-0.1636 0.3320 (  8444 PWs)   bands (ev):

   -33.6819 -33.6763 -17.0787 -17.0681 -15.1124 -15.0119 -14.9495 -14.7317
   -14.7166 -14.6206 -13.7940 -13.5975 -13.5900 -13.4184  -3.1661  -3.0608
    -1.4678  -1.4555  -1.3550  -1.3133  -1.2008  -0.7211   2.3989   2.5202
     2.6069   2.6296   2.7609   2.9884   3.2007   3.3107   4.0916   4.1995

          k = 0.8500 0.4907 0.0000 (  8448 PWs)   bands (ev):

   -33.6802 -33.6777 -17.0819 -17.0527 -15.1273 -14.9933 -14.9710 -14.7973
   -14.6927 -14.6226 -13.7679 -13.6080 -13.5713 -13.4240  -3.0938  -2.9625
    -1.4951  -1.4312  -1.3392  -1.2588  -1.0358  -0.8116   2.2429   2.3663
     2.5503   2.6272   2.7110   2.9902   3.0495   3.1939   4.2010   4.2968

          k = 0.7083 0.4090 0.0415 (  8460 PWs)   bands (ev):

   -33.6793 -33.6784 -17.1122 -17.0104 -15.1423 -15.0854 -14.8794 -14.8309
   -14.6864 -14.6037 -13.7446 -13.7275 -13.4669 -13.4336  -3.0666  -2.8659
    -1.5656  -1.3746  -1.3200  -1.1974  -0.9179  -0.9066   2.0566   2.2640
     2.4682   2.6629   2.7228   2.9510   3.0320   3.1632   4.2194   4.3995

          k = 0.5667 0.3272 0.0830 (  8441 PWs)   bands (ev):

   -33.6810 -33.6767 -17.1356 -16.9812 -15.1624 -15.1316 -14.8512 -14.7773
   -14.6981 -14.5892 -13.8281 -13.7015 -13.4648 -13.4020  -3.0733  -2.8536
    -1.5878  -1.3476  -1.2757  -1.2132  -1.0557  -0.8189   2.0126   2.3195
     2.4269   2.6886   2.6954   2.9523   3.0320   3.2327   4.1953   4.4260

          k =-0.1417 0.0818 0.3320 (  8475 PWs)   bands (ev):

   -33.6828 -33.6757 -17.0855 -17.0724 -15.0909 -15.0165 -14.9135 -14.8049
   -14.6438 -14.6212 -13.7788 -13.6924 -13.5065 -13.4447  -3.2418  -3.1290
    -1.4867  -1.4579  -1.3873  -1.3143  -1.3048  -0.6701   2.4414   2.4831
     2.6435   2.6873   2.9716   3.0736   3.3172   3.4416   3.9386   4.1235

          k =-0.2833 0.0000 0.3735 (  8449 PWs)   bands (ev):

   -33.6818 -33.6765 -17.0890 -17.0624 -15.0941 -15.0248 -14.9136 -14.7813
   -14.6846 -14.6396 -13.7517 -13.6558 -13.5344 -13.4527  -3.1684  -3.1113
    -1.4550  -1.4381  -1.3900  -1.3018  -1.1994  -0.7518   2.4313   2.4902
     2.6034   2.6383   2.8651   3.0352   3.1758   3.3559   4.0676   4.1529

          k = 0.8500 0.6543 0.0415 (  8450 PWs)   bands (ev):

   -33.6804 -33.6776 -17.0715 -17.0694 -15.0975 -15.0554 -14.8912 -14.7785
   -14.7151 -14.6529 -13.7426 -13.6593 -13.5252 -13.4446  -3.0935  -3.0268
    -1.4623  -1.4017  -1.3991  -1.2771  -1.0459  -0.8182   2.3164   2.3771
     2.6103   2.6154   2.7288   2.9494   3.0937   3.2378   4.1919   4.2427

          k = 0.7083 0.5725 0.0830 (  8468 PWs)   bands (ev):

   -33.6789 -33.6789 -17.0978 -17.0313 -15.1315 -15.0531 -14.9051 -14.7886
   -14.6954 -14.6520 -13.7644 -13.6802 -13.4981 -13.4226  -3.0576  -2.9073
    -1.5331  -1.3698  -1.3592  -1.2313  -0.9196  -0.8773   2.1258   2.2618
     2.5211   2.6346   2.6980   2.8616   3.1076   3.1740   4.2382   4.3650

          k = 0.5667 0.4907 0.1245 (  8447 PWs)   bands (ev):

   -33.6802 -33.6774 -17.1275 -16.9911 -15.1665 -15.1165 -14.8700 -14.7420
   -14.7038 -14.6111 -13.8459 -13.6972 -13.4701 -13.3850  -3.0599  -2.8368
    -1.5776  -1.3621  -1.2883  -1.2186  -0.9667  -0.8432   2.0012   2.2612
     2.4386   2.6542   2.6978   2.8249   3.1201   3.2089   4.2184   4.4464

          k =-0.2833 0.1636 0.4150 (  8461 PWs)   bands (ev):

   -33.6812 -33.6770 -17.1054 -17.0433 -15.1224 -14.9735 -14.9229 -14.7980
   -14.6968 -14.6414 -13.7523 -13.6339 -13.5408 -13.4586  -3.1395  -3.1011
    -1.4798  -1.4068  -1.3709  -1.2877  -1.1344  -0.8121   2.4006   2.4295
     2.6130   2.6336   2.8662   3.0490   3.0610   3.3466   4.1363   4.1401

          k = 0.8500 0.8179 0.0830 (  8459 PWs)   bands (ev):

   -33.6804 -33.6776 -17.1046 -17.0366 -15.1285 -15.0325 -14.8592 -14.7852
   -14.7146 -14.6655 -13.7494 -13.6827 -13.4912 -13.4534  -3.1014  -3.0222
    -1.4856  -1.4092  -1.3445  -1.2788  -1.0229  -0.8534   2.2791   2.3612
     2.5888   2.6616   2.7965   2.8761   3.0828   3.2734   4.1830   4.2482

          k = 0.7083 0.7361 0.1245 (  8452 PWs)   bands (ev):

   -33.6794 -33.6784 -17.0765 -17.0570 -15.0976 -15.0610 -14.8384 -14.8239
   -14.7104 -14.7052 -13.7308 -13.6797 -13.4860 -13.4524  -2.9977  -2.9819
    -1.4654  -1.4597  -1.3236  -1.2640  -0.9144  -0.8616   2.1877   2.2202
     2.5808   2.6103   2.7136   2.7503   3.1355   3.2024   4.2911   4.3122

          k = 0.5667 0.6543 0.1660 (  8441 PWs)   bands (ev):

   -33.6793 -33.6783 -17.0901 -17.0349 -15.1098 -15.0812 -14.8873 -14.7799
   -14.7065 -14.6880 -13.7672 -13.6860 -13.4770 -13.4212  -2.9871  -2.8913
    -1.5212  -1.4343  -1.2836  -1.2573  -0.8860  -0.8479   2.0791   2.1830
     2.4980   2.5774   2.6679   2.7110   3.1791   3.1998   4.3077   4.4042

          k = 0.8500-0.4907-0.2490 (  8465 PWs)   bands (ev):

   -33.6802 -33.6777 -17.1262 -17.0078 -15.1751 -15.0534 -14.8474 -14.7488
   -14.7171 -14.6252 -13.8131 -13.7245 -13.4650 -13.4062  -3.1295  -2.9322
    -1.5389  -1.3767  -1.2849  -1.2793  -0.9786  -0.8870   2.1588   2.3309
     2.5905   2.7033   2.7220   2.8694   3.0682   3.2568   4.1592   4.3320

          k = 0.7083-0.5725-0.2075 (  8462 PWs)   bands (ev):

   -33.6798 -33.6780 -17.1198 -17.0083 -15.1517 -15.0964 -14.8355 -14.7333
   -14.7099 -14.6742 -13.7716 -13.7625 -13.4389 -13.4179  -3.0815  -2.8835
    -1.5443  -1.3922  -1.2797  -1.2633  -0.9241  -0.8751   2.0768   2.2614
     2.5528   2.6603   2.6919   2.7987   3.1169   3.2114   4.2079   4.3934

          k = 0.7083-0.4090-0.1660 (  8458 PWs)   bands (ev):

   -33.6801 -33.6776 -17.1378 -16.9824 -15.1820 -15.1390 -14.7909 -14.7685
   -14.7034 -14.5900 -13.8193 -13.8024 -13.4062 -13.4010  -3.1040  -2.8271
    -1.5839  -1.3563  -1.2838  -1.2161  -0.9444  -0.8805   1.9958   2.2619
     2.4879   2.6917   2.7133   2.8499   3.0966   3.2003   4.1747   4.4411

          k = 0.0000 0.0000 0.3735 (  8453 PWs)   bands (ev):

   -33.6824 -33.6762 -17.0833 -17.0786 -15.0514 -15.0514 -14.8778 -14.8778
   -14.6308 -14.5774 -13.7371 -13.7371 -13.4806 -13.4806  -3.2813  -3.1553
    -1.4677  -1.4677  -1.3385  -1.3385  -1.3380  -0.7029   2.4684   2.4684
     2.6788   2.6788   3.1072   3.1072   3.4049   3.4049   3.8734   4.0801

          k =-0.1417-0.0818 0.4150 (  8454 PWs)   bands (ev):

   -33.6816 -33.6769 -17.0796 -17.0790 -15.0820 -14.9752 -14.9721 -14.8271
   -14.6415 -14.5986 -13.7605 -13.6253 -13.5718 -13.4582  -3.2393  -3.1501
    -1.4549  -1.4389  -1.3570  -1.3534  -1.2230  -0.7775   2.4755   2.5091
     2.6352   2.6383   3.0141   3.1350   3.2670   3.3636   3.9621   4.0920

          k = 0.9917 0.5725 0.0830 (  8459 PWs)   bands (ev):

   -33.6803 -33.6779 -17.0828 -17.0661 -15.1133 -15.0122 -14.9327 -14.7744
   -14.6930 -14.6169 -13.7735 -13.6063 -13.5818 -13.4363  -3.1684  -3.0762
    -1.4597  -1.3992  -1.3683  -1.3335  -1.0793  -0.8466   2.3933   2.4875
     2.6019   2.6263   2.8249   3.0939   3.1047   3.2528   4.0974   4.1787

          k = 0.8500 0.4907 0.1245 (  8449 PWs)   bands (ev):

   -33.6790 -33.6789 -17.1069 -17.0285 -15.1600 -15.0113 -14.9239 -14.7572
   -14.7120 -14.6169 -13.8047 -13.6678 -13.5137 -13.4070  -3.1184  -2.9437
    -1.5246  -1.3610  -1.3528  -1.2628  -0.9564  -0.8926   2.1928   2.3466
     2.5896   2.6680   2.6866   2.9488   3.0813   3.1876   4.1752   4.3168

          k =-0.1417 0.0818 0.4565 (  8469 PWs)   bands (ev):

   -33.6810 -33.6775 -17.0843 -17.0749 -15.0687 -14.9761 -14.9597 -14.8586
   -14.6261 -14.6179 -13.7221 -13.6093 -13.5830 -13.4904  -3.2216  -3.1749
    -1.4458  -1.4224  -1.3823  -1.3429  -1.1654  -0.8396   2.4951   2.5289
     2.5915   2.6330   3.0533   3.1663   3.2156   3.3501   3.9820   4.0661

          k = 0.9917 0.7361 0.1245 (  8451 PWs)   bands (ev):

   -33.6801 -33.6782 -17.0811 -17.0718 -15.0749 -15.0478 -14.8834 -14.8340
   -14.6576 -14.6415 -13.7112 -13.6711 -13.5222 -13.4872  -3.1576  -3.1381
    -1.4337  -1.4170  -1.3750  -1.3367  -1.0558  -0.8973   2.4530   2.4778
     2.5968   2.6135   2.9482   3.0377   3.1747   3.2690   4.0898   4.1191

          k = 0.8500 0.6543 0.1660 (  8455 PWs)   bands (ev):

   -33.6790 -33.6790 -17.0886 -17.0536 -15.1167 -15.0359 -14.8796 -14.7802
[...]

          k = 0.5667 0.6544 0.0415 (  8461 PWs)   bands (ev):

   -33.7176 -33.7176 -17.0873 -17.0641 -15.1438 -15.0682 -14.9710 -14.8379
   -14.7352 -14.6977 -13.7811 -13.6743 -13.5294 -13.4483  -2.9856  -2.9326
    -1.5401  -1.4143  -1.3718  -1.2280  -0.8967  -0.8808   2.1062   2.1544
     2.4541   2.5295   2.6673   2.7274   3.1276   3.1934   4.3115   4.3577

          k = 0.4250 0.5726 0.0829 (  8456 PWs)   bands (ev):

   -33.7189 -33.7162 -17.1193 -17.0267 -15.1874 -15.0650 -15.0028 -14.7765
   -14.7413 -14.6612 -13.8490 -13.6386 -13.5558 -13.4147  -3.0188  -2.8959
    -1.5718  -1.3929  -1.3164  -1.2409  -1.0054  -0.8232   2.0560   2.2569
     2.4002   2.5173   2.6533   2.7637   3.1476   3.2029   4.2650   4.4056

          k = 0.2834 0.4908 0.1244 (  8472 PWs)   bands (ev):

   -33.7202 -33.7150 -17.1281 -17.0220 -15.1867 -15.0594 -14.9836 -14.8083
   -14.7210 -14.6601 -13.8284 -13.6445 -13.5520 -13.4341  -3.0458  -2.9581
    -1.5565  -1.4034  -1.3262  -1.2483  -1.1369  -0.7694   2.1478   2.3730
     2.4610   2.5194   2.6511   2.8367   3.1108   3.2525   4.2313   4.3405

          k =-0.4250 0.2454 0.3731 (  8468 PWs)   bands (ev):

   -33.7200 -33.7154 -17.1513 -17.0072 -15.1995 -15.1209 -14.8052 -14.7852
   -14.7700 -14.6826 -13.8067 -13.7899 -13.4544 -13.4462  -3.1454  -2.9496
    -1.5557  -1.4027  -1.3353  -1.2466  -1.0715  -0.8396   2.1258   2.3216
     2.5313   2.7030   2.7298   2.8528   3.0110   3.3002   4.1352   4.3165

          k = 0.7084 0.8998 0.0415 (  8470 PWs)   bands (ev):

   -33.7193 -33.7159 -17.1479 -17.0046 -15.1995 -15.1465 -14.8199 -14.7713
   -14.7414 -14.6989 -13.8505 -13.7735 -13.4540 -13.4213  -3.1115  -2.8906
    -1.5591  -1.4188  -1.3143  -1.2379  -0.9868  -0.8570   2.0304   2.2545
     2.5163   2.6765   2.6922   2.7387   3.0729   3.2491   4.1681   4.3898

          k = 0.5667 0.8180 0.0829 (  8462 PWs)   bands (ev):

   -33.7185 -33.7167 -17.1161 -17.0352 -15.1684 -15.1046 -14.8719 -14.8393
   -14.7443 -14.7062 -13.8165 -13.7119 -13.4902 -13.4338  -3.0218  -2.8959
    -1.5166  -1.4730  -1.3298  -1.2351  -0.9115  -0.8530   2.0307   2.1828
     2.4939   2.5614   2.6471   2.6714   3.1421   3.2124   4.2661   4.4012

          k = 0.4250 0.7362 0.1244 (  8438 PWs)   bands (ev):

   -33.7175 -33.7175 -17.0745 -17.0744 -15.1301 -15.1130 -14.9188 -14.8763
   -14.7239 -14.6966 -13.7485 -13.7453 -13.4710 -13.4694  -2.9415  -2.9413
    -1.5199  -1.4746  -1.3127  -1.2450  -0.8920  -0.8695   2.1209   2.1267
     2.4500   2.4585   2.6539   2.6723   3.1760   3.1975   4.3562   4.3580

          k = 0.2834 0.6544 0.1658 (  8457 PWs)   bands (ev):

   -33.7185 -33.7167 -17.0963 -17.0512 -15.1525 -15.0731 -14.9780 -14.8768
   -14.7016 -14.6729 -13.7806 -13.6747 -13.5252 -13.4555  -2.9809  -2.9352
    -1.5338  -1.4668  -1.2788  -1.2541  -0.9720  -0.8494   2.1154   2.2189
     2.4351   2.4599   2.6877   2.7518   3.1450   3.1891   4.3049   4.3655

          k = 0.7084-0.4090-0.2902 (  8477 PWs)   bands (ev):

   -33.7194 -33.7158 -17.1677 -16.9768 -15.2301 -15.2049 -14.7748 -14.7524
   -14.7450 -14.6193 -13.9086 -13.8487 -13.4120 -13.3918  -3.1435  -2.8254
    -1.6023  -1.3903  -1.2626  -1.2324  -0.9782  -0.8829   1.9399   2.2312
     2.5060   2.6622   2.7226   2.7552   3.0938   3.2294   4.1242   4.4458

          k = 0.5667-0.4908-0.2487 (  8470 PWs)   bands (ev):

   -33.7193 -33.7159 -17.1561 -16.9883 -15.2154 -15.1824 -14.8327 -14.7530
   -14.7366 -14.6463 -13.9116 -13.7727 -13.4530 -13.3879  -3.1039  -2.8317
    -1.5881  -1.4081  -1.2759  -1.2333  -0.9699  -0.8582   1.9426   2.2266
     2.4600   2.6564   2.6788   2.7312   3.1211   3.2192   4.1668   4.4513

          k = 0.4250-0.5726-0.2073 (  8458 PWs)   bands (ev):

   -33.7189 -33.7162 -17.1241 -17.0233 -15.1972 -15.0766 -14.9545 -14.8041
   -14.7233 -14.6702 -13.8640 -13.6541 -13.5391 -13.4077  -3.0280  -2.8872
    -1.5474  -1.4427  -1.3031  -1.2437  -0.9688  -0.8323   2.0308   2.2368
     2.4269   2.5406   2.6525   2.7286   3.1363   3.2251   4.2549   4.4136

          k = 0.5667-0.3272-0.2073 (  8480 PWs)   bands (ev):

   -33.7199 -33.7153 -17.1662 -16.9760 -15.2178 -15.2045 -14.8149 -14.7497
   -14.7477 -14.6160 -13.9140 -13.7908 -13.4447 -13.3898  -3.1271  -2.8391
    -1.6042  -1.3803  -1.2648  -1.2361  -1.0358  -0.8495   1.9490   2.2757
     2.4284   2.6872   2.7082   2.8217   3.0655   3.2453   4.1356   4.4376

          k = 0.4250-0.4090-0.1658 (  8458 PWs)   bands (ev):

   -33.7202 -33.7150 -17.1501 -16.9970 -15.2124 -15.1225 -14.9060 -14.7654
   -14.7353 -14.6496 -13.8844 -13.6815 -13.5223 -13.4029  -3.0922  -2.9018
    -1.5757  -1.3956  -1.3061  -1.2402  -1.0954  -0.8009   2.0459   2.3441
     2.4179   2.6323   2.6688   2.8653   3.0560   3.2695   4.1797   4.3856

          k = 0.4250-0.2454-0.1244 (  8475 PWs)   bands (ev):

   -33.7212 -33.7142 -17.1480 -17.0057 -15.1631 -15.1332 -14.8900 -14.7685
   -14.7490 -14.6951 -13.8139 -13.6898 -13.5237 -13.4394  -3.1025  -2.9753
    -1.5611  -1.4058  -1.3516  -1.2460  -1.1960  -0.7437   2.1610   2.4187
     2.4577   2.6461   2.6729   2.9313   3.0480   3.3214   4.1705   4.2965

          k =-0.0000 0.0000 0.2487 (  8471 PWs)   bands (ev):

   -33.7228 -33.7133 -17.0984 -17.0895 -15.1188 -15.1188 -14.8506 -14.8506
   -14.6811 -14.5977 -13.8390 -13.8390 -13.4447 -13.4447  -3.3188  -3.1200
    -1.5329  -1.5187  -1.5187  -1.3215  -1.3215  -0.5585   2.3914   2.3914
     2.7187   2.7187   3.0142   3.0142   3.4731   3.4731   3.8015   4.1219

          k =-0.1417-0.0818 0.2902 (  8468 PWs)   bands (ev):

   -33.7220 -33.7140 -17.0945 -17.0900 -15.1397 -15.0478 -14.9487 -14.8088
   -14.6937 -14.6292 -13.8491 -13.7150 -13.5297 -13.4342  -3.2735  -3.1250
    -1.5163  -1.5011  -1.4122  -1.3315  -1.3284  -0.6343   2.4129   2.4421
     2.6625   2.6861   2.9164   3.0218   3.3512   3.4193   3.9040   4.1243

          k =-0.2834-0.1636 0.3316 (  8464 PWs)   bands (ev):

   -33.7206 -33.7151 -17.0920 -17.0823 -15.1420 -15.0423 -14.9810 -14.7657
   -14.7510 -14.6545 -13.8133 -13.6195 -13.6125 -13.4423  -3.1854  -3.0807
    -1.4815  -1.4720  -1.3721  -1.3300  -1.2151  -0.7349   2.3800   2.5008
     2.5875   2.6117   2.7447   2.9687   3.1806   3.2899   4.0697   4.1774

          k = 0.8501 0.4908 0.0000 (  8465 PWs)   bands (ev):

   -33.7189 -33.7165 -17.0958 -17.0660 -15.1567 -15.0238 -15.0019 -14.8305
   -14.7280 -14.6567 -13.7877 -13.6306 -13.5937 -13.4479  -3.1132  -2.9827
    -1.5107  -1.4458  -1.3557  -1.2755  -1.0503  -0.8253   2.2244   2.3475
     2.5319   2.6088   2.6932   2.9699   3.0299   3.1734   4.1793   4.2749

          k = 0.7084 0.4090 0.0415 (  8471 PWs)   bands (ev):

   -33.7181 -33.7171 -17.1259 -17.0237 -15.1715 -15.1152 -14.9110 -14.8642
   -14.7217 -14.6380 -13.7648 -13.7489 -13.4903 -13.4575  -3.0860  -2.8865
    -1.5805  -1.3898  -1.3363  -1.2139  -0.9314  -0.9212   2.0385   2.2456
     2.4501   2.6443   2.7039   2.9317   3.0114   3.1425   4.1980   4.3775

          k = 0.5667 0.3272 0.0829 (  8445 PWs)   bands (ev):

   -33.7197 -33.7155 -17.1492 -16.9947 -15.1916 -15.1609 -14.8840 -14.8104
   -14.7332 -14.6239 -13.8479 -13.7223 -13.4885 -13.4259  -3.0928  -2.8742
    -1.6026  -1.3632  -1.2927  -1.2285  -1.0696  -0.8331   1.9948   2.3014
     2.4082   2.6699   2.6765   2.9332   3.0116   3.2115   4.1740   4.4038

          k =-0.1417 0.0818 0.3316 (  8486 PWs)   bands (ev):

   -33.7215 -33.7145 -17.0987 -17.0868 -15.1208 -15.0474 -14.9452 -14.8387
   -14.6785 -14.6544 -13.7985 -13.7135 -13.5294 -13.4683  -3.2610  -3.1488
    -1.5021  -1.4746  -1.4015  -1.3296  -1.3221  -0.6840   2.4223   2.4638
     2.6257   2.6700   2.9528   3.0549   3.2972   3.4204   3.9167   4.1011

          k =-0.2834 0.0000 0.3731 (  8464 PWs)   bands (ev):

   -33.7205 -33.7153 -17.1023 -17.0766 -15.1239 -15.0551 -14.9454 -14.8148
   -14.7185 -14.6737 -13.7718 -13.6774 -13.5571 -13.4764  -3.1877  -3.1310
    -1.4710  -1.4537  -1.4063  -1.3188  -1.2133  -0.7655   2.4122   2.4713
     2.5846   2.6205   2.8472   3.0162   3.1562   3.3347   4.0457   4.1308

          k = 0.8501 0.6544 0.0415 (  8461 PWs)   bands (ev):

   -33.7192 -33.7164 -17.0849 -17.0833 -15.1270 -15.0854 -14.9231 -14.8107
   -14.7505 -14.6871 -13.7630 -13.6808 -13.5483 -13.4683  -3.1130  -3.0467
    -1.4783  -1.4180  -1.4139  -1.2939  -1.0602  -0.8319   2.2977   2.3582
     2.5915   2.5968   2.7116   2.9304   3.0735   3.2170   4.1701   4.2208

          k = 0.7084 0.5726 0.0829 (  8476 PWs)   bands (ev):

   -33.7176 -33.7176 -17.1115 -17.0446 -15.1607 -15.0830 -14.9363 -14.8221
   -14.7308 -14.6860 -13.7847 -13.7020 -13.5212 -13.4465  -3.0771  -2.9276
    -1.5482  -1.3862  -1.3742  -1.2478  -0.9342  -0.8910   2.1075   2.2432
     2.5033   2.6159   2.6794   2.8430   3.0868   3.1533   4.2166   4.3431

          k = 0.5667 0.4908 0.1244 (  8455 PWs)   bands (ev):

   -33.7190 -33.7162 -17.1411 -17.0045 -15.1956 -15.1459 -14.9023 -14.7761
   -14.7391 -14.6453 -13.8654 -13.7182 -13.4937 -13.4089  -3.0794  -2.8574
    -1.5925  -1.3773  -1.3051  -1.2343  -0.9805  -0.8577   1.9834   2.2426
     2.4208   2.6355   2.6787   2.8064   3.0992   3.1877   4.1971   4.4242

          k =-0.2834 0.1636 0.4145 (  8471 PWs)   bands (ev):

   -33.7200 -33.7157 -17.1189 -17.0572 -15.1519 -15.0042 -14.9539 -14.8317
   -14.7311 -14.6758 -13.7722 -13.6562 -13.5633 -13.4822  -3.1589  -3.1208
    -1.4958  -1.4237  -1.3861  -1.3048  -1.1480  -0.8257   2.3820   2.4104
     2.5950   2.6144   2.8478   3.0302   3.0423   3.3251   4.1144   4.1181

          k = 0.8501 0.8180 0.0829 (  8475 PWs)   bands (ev):

   -33.7191 -33.7164 -17.1181 -17.0503 -15.1578 -15.0623 -14.8908 -14.8185
   -14.7496 -14.6998 -13.7695 -13.7044 -13.5143 -13.4771  -3.1209  -3.0420
    -1.5016  -1.4256  -1.3595  -1.2956  -1.0368  -0.8672   2.2607   2.3421
     2.5705   2.6424   2.7785   2.8581   3.0631   3.2520   4.1613   4.2262

          k = 0.7084 0.7362 0.1244 (  8470 PWs)   bands (ev):

   -33.7181 -33.7172 -17.0901 -17.0706 -15.1271 -15.0906 -14.8695 -14.8559
   -14.7457 -14.7404 -13.7519 -13.7014 -13.5093 -13.4758  -3.0175  -3.0017
    -1.4809  -1.4756  -1.3388  -1.2805  -0.9288  -0.8757   2.1693   2.2015
     2.5625   2.5915   2.6954   2.7325   3.1149   3.1813   4.2694   4.2904

          k = 0.5667 0.6544 0.1658 (  8454 PWs)   bands (ev):

   -33.7180 -33.7171 -17.1037 -17.0483 -15.1391 -15.1108 -14.9188 -14.8120
   -14.7418 -14.7230 -13.7882 -13.7076 -13.5003 -13.4448  -3.0068  -2.9115
    -1.5362  -1.4494  -1.2999  -1.2732  -0.9002  -0.8625   2.0611   2.1646
     2.4800   2.5588   2.6492   2.6928   3.1580   3.1787   4.2862   4.3823

          k = 0.8501-0.4908-0.2487 (  8476 PWs)   bands (ev):

   -33.7189 -33.7165 -17.1399 -17.0213 -15.2041 -15.0831 -14.8792 -14.7837
   -14.7523 -14.6592 -13.8318 -13.7460 -13.4882 -13.4302  -3.1488  -2.9525
    -1.5546  -1.3931  -1.3001  -1.2960  -0.9924  -0.9009   2.1405   2.3117
     2.5716   2.6843   2.7052   2.8506   3.0487   3.2352   4.1378   4.3099

          k = 0.7084-0.5726-0.2073 (  8477 PWs)   bands (ev):

   -33.7185 -33.7167 -17.1335 -17.0217 -15.1807 -15.1259 -14.8677 -14.7679
   -14.7453 -14.7073 -13.7917 -13.7832 -13.4625 -13.4418  -3.1009  -2.9039
    -1.5597  -1.4079  -1.2963  -1.2787  -0.9381  -0.8895   2.0587   2.2425
     2.5343   2.6428   2.6731   2.7803   3.0966   3.1899   4.1865   4.3714

          k = 0.7084-0.4090-0.1658 (  8471 PWs)   bands (ev):

   -33.7188 -33.7164 -17.1516 -16.9957 -15.2109 -15.1683 -14.8238 -14.8031
   -14.7388 -14.6241 -13.8395 -13.8215 -13.4299 -13.4251  -3.1232  -2.8479
    -1.5990  -1.3718  -1.3006  -1.2315  -0.9582  -0.8949   1.9778   2.2430
     2.4701   2.6732   2.6945   2.8313   3.0762   3.1789   4.1535   4.4190

          k =-0.0000 0.0000 0.3731 (  8462 PWs)   bands (ev):

   -33.7212 -33.7150 -17.0977 -17.0919 -15.0819 -15.0819 -14.9104 -14.9104
   -14.6654 -14.6110 -13.7575 -13.7575 -13.5037 -13.5037  -3.3004  -3.1749
    -1.4844  -1.4844  -1.3558  -1.3558  -1.3495  -0.7168   2.4493   2.4493
     2.6611   2.6611   3.0883   3.0883   3.3845   3.3845   3.8515   4.0577

          k =-0.1417-0.0818 0.4145 (  8472 PWs)   bands (ev):

   -33.7203 -33.7157 -17.0932 -17.0930 -15.1120 -15.0063 -15.0035 -14.8605
   -14.6759 -14.6324 -13.7804 -13.6473 -13.5940 -13.4817  -3.2584  -3.1697
    -1.4716  -1.4550  -1.3739  -1.3703  -1.2359  -0.7912   2.4565   2.4901
     2.6171   2.6202   2.9960   3.1156   3.2472   3.3431   3.9403   4.0698

          k = 0.9917 0.5726 0.0829 (  8478 PWs)   bands (ev):

   -33.7191 -33.7166 -17.0968 -17.0796 -15.1428 -15.0426 -14.9643 -14.8082
   -14.7274 -14.6509 -13.7931 -13.6282 -13.6045 -13.4601  -3.1877  -3.0959
    -1.4761  -1.4145  -1.3854  -1.3499  -1.0931  -0.8601   2.3746   2.4684
     2.5828   2.6078   2.8080   3.0745   3.0845   3.2325   4.0756   4.1567

          k = 0.8501 0.4908 0.1244 (  8464 PWs)   bands (ev):

   -33.7177 -33.7177 -17.1207 -17.0419 -15.1891 -15.0415 -14.9549 -14.7915
   -14.7474 -14.6509 -13.8237 -13.6900 -13.5365 -13.4311  -3.1377  -2.9639
    -1.5402  -1.3775  -1.3684  -1.2790  -0.9707  -0.9061   2.1744   2.3275
     2.5707   2.6492   2.6696   2.9297   3.0612   3.1667   4.1536   4.2948

          k =-0.1417 0.0818 0.4560 (  8479 PWs)   bands (ev):

   -33.7197 -33.7163 -17.0978 -17.0890 -15.0988 -15.0070 -14.9911 -14.8915
   -14.6605 -14.6518 -13.7425 -13.6314 -13.6051 -13.5137  -3.2408  -3.1943
    -1.4622  -1.4394  -1.3991  -1.3600  -1.1781  -0.8531   2.4763   2.5099
     2.5732   2.6148   3.0346   3.1472   3.1963   3.3295   3.9601   4.0440

          k = 0.9917 0.7362 0.1244 (  8458 PWs)   bands (ev):

   -33.7188 -33.7170 -17.0947 -17.0857 -15.1048 -15.0779 -14.9157 -14.8669
   -14.6917 -14.6757 -13.7318 -13.6923 -13.5452 -13.5105  -3.1769  -3.1575
    -1.4502  -1.4336  -1.3912  -1.3535  -1.0691  -0.9108   2.4342   2.4591
     2.5780   2.5950   2.9301   3.0192   3.1548   3.2485   4.0679   4.0971

          k = 0.8501 0.6544 0.1658 (  8462 PWs)   bands (ev):

   -33.7178 -33.7178 -17.1024 -17.0672 -15.1460 -15.0659 -14.9111 -14.8136
   -14.7425 -14.7000 -13.7691 -13.6867 -13.5377 -13.4704  -3.1215  -3.0445
    -1.4942  -1.4221  -1.3506  -1.3209  -0.9613  -0.9318   2.2743   2.3410
     2.5925   2.6173   2.7576   2.8743   3.1257   3.1736   4.1622   4.2233

          k = 0.9917-0.5726-0.2073 (  8465 PWs)   bands (ev):

   -33.7183 -33.7174 -17.1095 -17.0675 -15.1513 -15.0067 -14.9682 -14.8373
   -14.7181 -14.6588 -13.7820 -13.6186 -13.6058 -13.4746  -3.1789  -3.1100
    -1.4866  -1.4033  -1.3645  -1.3530  -1.0059  -0.9574   2.3760   2.4337
     2.5869   2.6088   2.8770   2.9905   3.1154   3.2383   4.0906   4.1364

          k =-0.0000 0.0000 0.4975 (  8471 PWs)   bands (ev):

   -33.7191 -33.7170 -17.0963 -17.0943 -15.0325 -15.0325 -14.9737 -14.9737
   -14.6468 -14.6279 -13.6675 -13.6675 -13.5801 -13.5801  -3.2702  -3.2276
    -1.4424  -1.4424  -1.3978  -1.3978  -1.1353  -0.9162   2.5193   2.5193
     2.5926   2.5926   3.1799   3.1799   3.2822   3.2822   3.9147   3.9856

          k = 1.1334 0.6544 0.1658 (  8469 PWs)   bands (ev):

   -33.7183 -33.7177 -17.0959 -17.0912 -15.0792 -15.0450 -14.9578 -14.9171
   -14.6602 -14.6439 -13.7069 -13.6560 -13.5868 -13.5403  -3.2321  -3.2100
    -1.4419  -1.4091  -1.4090  -1.3994  -1.0462  -0.9802   2.5063   2.5329
     2.5624   2.5731   3.0855   3.1434   3.2143   3.2555   3.9883   4.0128

     highest occupied level (ev):     4.4608

!    total energy              =    -367.43354237 Ry
     Harris-Foulkes estimate   =    -367.43354243 Ry
     estimated scf accuracy    <       0.00000007 Ry

     The total energy is the sum of the following terms:

     one-electron contribution =    -148.48637529 Ry
     hartree contribution      =     103.58193880 Ry
     xc contribution           =     -75.26488531 Ry
     ewald contribution        =    -247.26422057 Ry

     convergence has been achieved in   8 iterations

     Forces acting on atoms (cartesian axes, Ry/au):

     atom    1 type  1   force =     0.00000000    0.00000000    0.00000000
     atom    2 type  1   force =     0.00000000    0.00000000    0.00000000
     atom    3 type  2   force =    -0.00000000   -0.00000000   -0.00000000
     atom    4 type  2   force =     0.00000000    0.00000000   -0.00000000
     atom    5 type  3   force =    -0.00003889    0.00006737    0.00000000
     atom    6 type  3   force =     0.00007779   -0.00000000    0.00000000
     atom    7 type  3   force =    -0.00003889   -0.00006737   -0.00000000
     atom    8 type  3   force =    -0.00007779   -0.00000000    0.00000000
     atom    9 type  3   force =     0.00003889    0.00006737    0.00000000
     atom   10 type  3   force =     0.00003889   -0.00006737   -0.00000000

     Total force =     0.000191     Total SCF correction =     0.001233
     SCF correction compared to forces is large: reduce conv_thr to get better values


     Computing stress (Cartesian axis) and pressure

          total   stress  (Ry/bohr**3)                   (kbar)     P=   -0.24
  -0.00000280  -0.00000000   0.00000000         -0.41     -0.00      0.00
   0.00000000  -0.00000280  -0.00000000          0.00     -0.41     -0.00
  -0.00000000  -0.00000000   0.00000066         -0.00     -0.00      0.10


     Writing output data file CCO_ener.save/
 
     init_run     :     21.75s CPU     25.34s WALL (       2 calls)
     electrons    :   2428.01s CPU   2684.75s WALL (      15 calls)
     update_pot   :      1.11s CPU      1.16s WALL (      13 calls)
     forces       :     12.12s CPU     12.73s WALL (      15 calls)
     stress       :     20.91s CPU     21.22s WALL (      15 calls)

     Called by init_run:
     wfcinit      :     21.09s CPU     24.56s WALL (       2 calls)
     potinit      :      0.07s CPU      0.09s WALL (       2 calls)
     hinit0       :      0.47s CPU      0.54s WALL (       2 calls)

     Called by electrons:
     c_bands      :   2249.52s CPU   2496.12s WALL (      82 calls)
     sum_band     :    175.88s CPU    184.57s WALL (      82 calls)
     v_of_rho     :      1.77s CPU      1.89s WALL (      87 calls)
     newd         :      0.73s CPU      0.76s WALL (      87 calls)
     mix_rho      :      0.15s CPU      0.21s WALL (      82 calls)

     Called by c_bands:
     init_us_2    :      4.14s CPU      4.82s WALL (   16660 calls)
     ccgdiagg     :   1833.52s CPU   1993.59s WALL (    7012 calls)
     wfcrot       :    432.08s CPU    511.71s WALL (    5057 calls)

     Called by sum_band:
     sum_band:bec :      1.93s CPU      2.05s WALL (    6970 calls)
     addusdens    :      0.54s CPU      0.63s WALL (      82 calls)

     Called by *cgdiagg:
     h_psi        :   1569.49s CPU   1673.71s WALL (  666612 calls)
     s_psi        :     78.90s CPU     90.00s WALL ( 1328167 calls)
     cdiaghg      :    145.12s CPU    209.74s WALL (    5057 calls)

     Called by h_psi:
     h_psi:pot    :   1551.58s CPU   1653.06s WALL (  666612 calls)
     h_psi:calbec :    172.62s CPU    186.38s WALL (  666612 calls)
     vloc_psi     :   1297.64s CPU   1379.53s WALL (  666612 calls)
     add_vuspsi   :     58.61s CPU     64.19s WALL (  666612 calls)
     hs_1psi      :   1404.70s CPU   1505.23s WALL (  661555 calls)
     s_1psi       :    156.29s CPU    177.33s WALL (  661555 calls)

     General routines
     calbec       :    258.77s CPU    288.09s WALL ( 1341512 calls)
     fft          :      2.17s CPU      2.25s WALL (    1355 calls)
     ffts         :      0.13s CPU      0.13s WALL (      82 calls)
     fftw         :   1388.01s CPU   1471.23s WALL ( 1876598 calls)
 
     Parallel routines
     fft_scatt_xy :     64.68s CPU     68.05s WALL ( 1878035 calls)
     fft_scatt_yz :   1045.08s CPU   1112.36s WALL ( 1878035 calls)
 
     PWSCF        :  41m36.34s CPU  46m 6.61s WALL

 
   This run was terminated on:   8:47:45  24Apr2022            

=------------------------------------------------------------------------------=
   JOB DONE.
=------------------------------------------------------------------------------=
