
     Program PWSCF v.6.4.1 starts on 23Apr2022 at 14:23:49 

     This program is part of the open-source Quantum ESPRESSO suite
     for quantum simulation of materials; please cite
         "P. Giannozzi et al., J. Phys.:Condens. Matter 21 395502 (2009);
         "P. Giannozzi et al., J. Phys.:Condens. Matter 29 465901 (2017);
          URL http://www.quantum-espresso.org", 
     in publications or presentations arising from this work. More details at
     http://www.quantum-espresso.org/quote

     Parallel version (MPI & OpenMP), running on       1 processor cores
     Number of MPI processes:                 1
     Threads/MPI process:                     1

     MPI processes distributed on     1 nodes
     Waiting for input...
     Reading input from standard input

     Current dimensions of program PWSCF are:
     Max number of different atomic species (ntypx) = 10
     Max number of k-points (npk) =  40000
     Max angular momentum in pseudopotentials (lmaxx) =  3

     Subspace diagonalization in iterative solution of the eigenvalue problem:
     a serial algorithm will be used

 
     G-vector sticks info
     --------------------
     sticks:   dense  smooth     PW     G-vecs:    dense   smooth      PW
     Sum        1981    1981    583                58383    58383    9185
 


     bravais-lattice index     =            5
     lattice parameter (alat)  =      12.0000  a.u.
     unit-cell volume          =    1221.8805 (a.u.)^3
     number of atoms/cell      =           10
     number of atomic types    =            3
     number of electrons       =        64.00
     number of Kohn-Sham states=           32
     kinetic-energy cutoff     =      50.0000  Ry
     charge density cutoff     =     200.0000  Ry
     convergence threshold     =      1.0E-08
     mixing beta               =       0.7000
     number of iterations used =            8  plain     mixing
     Exchange-correlation      = SLA  PW   PBE  PBE ( 1  4  3  4 0 0)
     nstep                     =           50


     celldm(1)=  12.000000  celldm(2)=   0.000000  celldm(3)=   0.000000
     celldm(4)=   0.500000  celldm(5)=   0.000000  celldm(6)=   0.000000

     crystal axes: (cart. coord. in units of alat)
               a(1) = (   0.500000  -0.288675   0.816497 )  
               a(2) = (   0.000000   0.577350   0.816497 )  
               a(3) = (  -0.500000  -0.288675   0.816497 )  

     reciprocal axes: (cart. coord. in units 2 pi/alat)
               b(1) = (  1.000000 -0.577350  0.408248 )  
               b(2) = (  0.000000  1.154701  0.408248 )  
               b(3) = ( -1.000000 -0.577350  0.408248 )  


     PseudoPot. # 1 for Ca read from file:
     ./Ca_PBE.UPF
     MD5 check sum: 403a4c14b9e4d4dfdc3024c9a3812218
     Pseudo is Ultrasoft + core correction, Zval = 10.0
     Generated by new atomic code, or converted to UPF format
     Using radial grid of  845 points,  6 beta functions with: 
                l(1) =   0
                l(2) =   0
                l(3) =   1
                l(4) =   1
                l(5) =   2
                l(6) =   2
     Q(r) pseudized with  8 coefficients,  rinner =    1.500   1.500   1.500
                                                       1.500   1.500

     PseudoPot. # 2 for C  read from file:
     ./C_PBE.UPF
     MD5 check sum: d1aef80898a10debaa0f26306b886e00
     Pseudo is Ultrasoft + core correction, Zval =  4.0
     Generated by new atomic code, or converted to UPF format
     Using radial grid of  721 points,  4 beta functions with: 
                l(1) =   0
                l(2) =   0
                l(3) =   1
                l(4) =   1
     Q(r) pseudized with  8 coefficients,  rinner =    1.100   1.100   1.100


     PseudoPot. # 3 for O  read from file:
     ./O_PBE.UPF
     MD5 check sum: 734c27235a0248c51dbae37a1fbe46ec
     Pseudo is Ultrasoft + core correction, Zval =  6.0
     Generated by new atomic code, or converted to UPF format
     Using radial grid of  737 points,  5 beta functions with: 
                l(1) =   0
                l(2) =   0
                l(3) =   1
                l(4) =   1
                l(5) =   2
     Q(r) pseudized with  8 coefficients,  rinner =    0.900   0.900   0.900
                                                       0.900   0.900

     atomic species   valence    mass     pseudopotential
        Ca            10.00    40.07800     Ca( 1.00)
        C              4.00    12.01070     C ( 1.00)
        O              6.00    16.00000     O ( 1.00)

     12 Sym. Ops., with inversion, found ( 6 have fractional translation)



   Cartesian axes

     site n.     atom                  positions (alat units)
         1           Ca  tau(   1) = (   0.0000000  -0.0000000   1.2247449  )
         2           Ca  tau(   2) = (   0.0000000   0.0000000   0.0000000  )
         3           C   tau(   3) = (   0.0000000  -0.0000000   0.6123724  )
         4           C   tau(   4) = (  -0.0000000  -0.0000000   1.8371173  )
         5           O   tau(   5) = (   0.1293055   0.3533865   1.4288690  )
         6           O   tau(   6) = (   0.2413889  -0.2886751   1.4288690  )
         7           O   tau(   7) = (  -0.3706945  -0.0647114   1.4288690  )
         8           O   tau(   8) = (  -0.2413889   0.2886751   1.0206207  )
         9           O   tau(   9) = (   0.3706945   0.0647114   1.0206207  )
        10           O   tau(  10) = (  -0.1293055  -0.3533865   1.0206207  )

     number of k points=    32
                       cart. coord. in units 2pi/alat
        k(    1) = (   0.0000000   0.0000000   0.0000000), wk =   0.0092593
        k(    2) = (  -0.1666667  -0.0962250   0.0680414), wk =   0.0555556
        k(    3) = (  -0.3333333  -0.1924501   0.1360828), wk =   0.0555556
        k(    4) = (   0.5000000   0.2886751  -0.2041241), wk =   0.0277778
        k(    5) = (  -0.1666667   0.0962250   0.1360828), wk =   0.0555556
        k(    6) = (  -0.3333333   0.0000000   0.2041241), wk =   0.1111111
        k(    7) = (   0.5000000   0.4811252  -0.1360828), wk =   0.1111111
        k(    8) = (   0.3333333   0.3849002  -0.0680414), wk =   0.1111111
        k(    9) = (   0.1666667   0.2886751   0.0000000), wk =   0.0555556
        k(   10) = (  -0.3333333   0.1924501   0.2721655), wk =   0.0555556
        k(   11) = (   0.5000000   0.6735753  -0.0680414), wk =   0.1111111
        k(   12) = (   0.3333333   0.5773503   0.0000000), wk =   0.0555556
        k(   13) = (   0.5000000  -0.2886751  -0.4082483), wk =   0.0277778
        k(   14) = (   0.0000000   0.0000000   0.2041241), wk =   0.0185185
        k(   15) = (  -0.1666667  -0.0962250   0.2721655), wk =   0.0555556
        k(   16) = (   0.6666667   0.3849002  -0.0680414), wk =   0.0555556
        k(   17) = (   0.5000000   0.2886751   0.0000000), wk =   0.0555556
        k(   18) = (   0.3333333   0.1924501   0.0680414), wk =   0.0555556
        k(   19) = (  -0.1666667   0.0962250   0.3402069), wk =   0.0555556
        k(   20) = (   0.6666667   0.5773503   0.0000000), wk =   0.1111111
        k(   21) = (   0.5000000   0.4811252   0.0680414), wk =   0.1111111
        k(   22) = (   0.3333333   0.3849002   0.1360828), wk =   0.1111111
        k(   23) = (   0.6666667  -0.3849002  -0.3402069), wk =   0.0555556
        k(   24) = (   0.5000000  -0.4811252  -0.2721655), wk =   0.1111111
        k(   25) = (   0.3333333  -0.5773503  -0.2041241), wk =   0.0555556
        k(   26) = (   0.5000000  -0.2886751  -0.2041241), wk =   0.0555556
        k(   27) = (   0.0000000   0.0000000   0.4082483), wk =   0.0185185
        k(   28) = (   0.8333333   0.4811252   0.0680414), wk =   0.0555556
        k(   29) = (   0.6666667   0.3849002   0.1360828), wk =   0.0555556
        k(   30) = (   0.8333333  -0.4811252  -0.2721655), wk =   0.0555556
        k(   31) = (   0.6666667  -0.5773503  -0.2041241), wk =   0.0555556
        k(   32) = (   0.0000000   0.0000000  -0.6123724), wk =   0.0092593

     Dense  grid:    58383 G-vectors     FFT dimensions: (  60,  60,  60)

     Estimated max dynamical RAM per process >     378.81 MB

     Check: negative core charge=   -0.000002

     Initial potential from superposition of free atoms

     starting charge   63.98899, renormalised to   64.00000
     Starting wfcs are   52 randomized atomic wfcs

     total cpu time spent up to now is       39.1 secs

     Self-consistent Calculation

     iteration #  1     ecut=    50.00 Ry     beta= 0.70
     CG style diagonalization
     ethr =  1.00E-02,  avg # of iterations =  2.1

     total cpu time spent up to now is      106.8 secs

     total energy              =    -365.08384116 Ry
     Harris-Foulkes estimate   =    -366.86964600 Ry
     estimated scf accuracy    <       2.42134289 Ry

     iteration #  2     ecut=    50.00 Ry     beta= 0.70
     CG style diagonalization
     ethr =  3.78E-03,  avg # of iterations =  4.8

     total cpu time spent up to now is      236.1 secs

     total energy              =    -364.88316264 Ry
     Harris-Foulkes estimate   =    -368.37508017 Ry
     estimated scf accuracy    <      10.15009747 Ry

     iteration #  3     ecut=    50.00 Ry     beta= 0.70
     CG style diagonalization
     ethr =  3.78E-03,  avg # of iterations =  4.3

     total cpu time spent up to now is      352.4 secs

     total energy              =    -366.36717195 Ry
     Harris-Foulkes estimate   =    -366.39341690 Ry
     estimated scf accuracy    <       0.05712585 Ry

     iteration #  4     ecut=    50.00 Ry     beta= 0.70
     CG style diagonalization
     ethr =  8.93E-05,  avg # of iterations =  4.3

     total cpu time spent up to now is      467.2 secs

     total energy              =    -366.40473234 Ry
     Harris-Foulkes estimate   =    -366.40807767 Ry
     estimated scf accuracy    <       0.01039920 Ry

     iteration #  5     ecut=    50.00 Ry     beta= 0.70
     CG style diagonalization
     ethr =  1.62E-05,  avg # of iterations =  3.8

     total cpu time spent up to now is      569.2 secs

     total energy              =    -366.40769669 Ry
     Harris-Foulkes estimate   =    -366.40767994 Ry
     estimated scf accuracy    <       0.00013768 Ry

     iteration #  6     ecut=    50.00 Ry     beta= 0.70
     CG style diagonalization
     ethr =  2.15E-07,  avg # of iterations =  5.3

     total cpu time spent up to now is      710.1 secs

     total energy              =    -366.40791053 Ry
     Harris-Foulkes estimate   =    -366.40795041 Ry
     estimated scf accuracy    <       0.00009816 Ry

     iteration #  7     ecut=    50.00 Ry     beta= 0.70
     CG style diagonalization
     ethr =  1.53E-07,  avg # of iterations =  3.8

     total cpu time spent up to now is      810.9 secs

     total energy              =    -366.40793688 Ry
     Harris-Foulkes estimate   =    -366.40794073 Ry
     estimated scf accuracy    <       0.00001331 Ry

     iteration #  8     ecut=    50.00 Ry     beta= 0.70
     CG style diagonalization
     ethr =  2.08E-08,  avg # of iterations =  3.6

     total cpu time spent up to now is      906.7 secs

     total energy              =    -366.40793898 Ry
     Harris-Foulkes estimate   =    -366.40793932 Ry
     estimated scf accuracy    <       0.00000131 Ry

     iteration #  9     ecut=    50.00 Ry     beta= 0.70
     CG style diagonalization
     ethr =  2.05E-09,  avg # of iterations =  4.2

     total cpu time spent up to now is     1017.2 secs

     total energy              =    -366.40793946 Ry
     Harris-Foulkes estimate   =    -366.40793953 Ry
     estimated scf accuracy    <       0.00000017 Ry

     iteration # 10     ecut=    50.00 Ry     beta= 0.70
     CG style diagonalization
     ethr =  2.66E-10,  avg # of iterations =  4.2

     total cpu time spent up to now is     1128.9 secs

     End of self-consistent calculation

          k = 0.0000 0.0000 0.0000 (  7391 PWs)   bands (ev):

   -38.5637 -38.5618 -19.5579 -19.5337 -19.4773 -19.4773 -19.4513 -19.4513
   -15.8677 -15.5781 -14.6254 -14.6254 -14.4755 -14.4755  -6.3270  -6.1708
    -2.5497  -2.5497  -2.4662  -2.4662  -1.6790  -0.5460   0.2868   0.2868
     0.4490   0.4490   0.5458   0.5458   0.8262   1.4031   1.4852   1.4852

          k =-0.1667-0.0962 0.0680 (  7333 PWs)   bands (ev):

   -38.5636 -38.5619 -19.5561 -19.5354 -19.4760 -19.4760 -19.4538 -19.4532
   -15.8407 -15.6013 -14.6156 -14.6083 -14.4948 -14.4879  -6.3194  -6.1686
    -2.5664  -2.5383  -2.4624  -2.4399  -1.6031  -0.6579   0.2938   0.2949
     0.3335   0.3483   0.6044   0.6382   0.9088   1.3505   1.4169   1.4643

          k =-0.3333-0.1925 0.1361 (  7297 PWs)   bands (ev):

   -38.5632 -38.5623 -19.5516 -19.5397 -19.4722 -19.4721 -19.4597 -19.4585
   -15.7775 -15.6522 -14.5911 -14.5802 -14.5316 -14.5182  -6.2866  -6.1816
    -2.5812  -2.5149  -2.4619  -2.4043  -1.4005  -0.8815   0.1217   0.1630
     0.3255   0.3743   0.7063   0.7655   0.9970   1.1693   1.3810   1.4287

          k = 0.5000 0.2887-0.2041 (  7336 PWs)   bands (ev):

   -38.5628 -38.5628 -19.5456 -19.5456 -19.4673 -19.4673 -19.4648 -19.4648
   -15.7107 -15.7107 -14.5693 -14.5693 -14.5460 -14.5460  -6.2291  -6.2291
    -2.5542  -2.5542  -2.4174  -2.4174  -1.1369  -1.1369   0.0607   0.0607
     0.3774   0.3774   0.7860   0.7860   1.0360   1.0360   1.3990   1.3990

          k =-0.1667 0.0962 0.1361 (  7303 PWs)   bands (ev):

   -38.5635 -38.5620 -19.5560 -19.5361 -19.4789 -19.4722 -19.4572 -19.4505
   -15.8346 -15.6064 -14.6208 -14.5972 -14.5072 -14.4822  -6.3190  -6.1708
    -2.5883  -2.5149  -2.4627  -2.4337  -1.5855  -0.6876   0.2871   0.3003
     0.3478   0.3905   0.5377   0.6900   0.9220   1.3417   1.3807   1.4429

          k =-0.3333 0.0000 0.2041 (  7295 PWs)   bands (ev):

   -38.5633 -38.5622 -19.5531 -19.5397 -19.4786 -19.4668 -19.4632 -19.4521
   -15.7873 -15.6428 -14.6098 -14.5701 -14.5416 -14.4984  -6.2981  -6.1765
    -2.6019  -2.5037  -2.4621  -2.3941  -1.4446  -0.8556   0.1800   0.2215
     0.3394   0.3934   0.6126   0.7906   0.9962   1.1999   1.3231   1.4200

          k = 0.5000 0.4811-0.1361 (  7293 PWs)   bands (ev):

   -38.5629 -38.5626 -19.5482 -19.5445 -19.4751 -19.4699 -19.4607 -19.4571
   -15.7295 -15.6876 -14.5982 -14.5769 -14.5412 -14.5184  -6.2465  -6.2114
    -2.5718  -2.5536  -2.4276  -2.3836  -1.2286  -1.0527   0.0613   0.0736
     0.4022   0.4147   0.7121   0.7862   1.0508   1.0801   1.3281   1.4059

          k = 0.3333 0.3849-0.0680 (  7307 PWs)   bands (ev):

   -38.5630 -38.5625 -19.5495 -19.5426 -19.4752 -19.4686 -19.4638 -19.4555
   -15.7401 -15.6794 -14.5967 -14.5803 -14.5360 -14.5196  -6.2664  -6.1899
    -2.6149  -2.4993  -2.4187  -2.4071  -1.2790  -1.0012   0.0290   0.0974
     0.3479   0.4352   0.6759   0.8113   1.0354   1.1671   1.3306   1.4011

          k = 0.1667 0.2887 0.0000 (  7327 PWs)   bands (ev):

   -38.5634 -38.5621 -19.5537 -19.5378 -19.4773 -19.4706 -19.4605 -19.4528
   -15.8002 -15.6333 -14.6103 -14.5788 -14.5296 -14.4981  -6.3057  -6.1656
    -2.6094  -2.5016  -2.4331  -2.4289  -1.4884  -0.7981   0.1507   0.2295
     0.3025   0.3740   0.6089   0.7728   0.9887   1.3145   1.3442   1.4177

          k =-0.3333 0.1925 0.2722 (  7275 PWs)   bands (ev):

   -38.5632 -38.5623 -19.5530 -19.5422 -19.4819 -19.4675 -19.4611 -19.4490
   -15.7631 -15.6588 -14.6140 -14.5736 -14.5444 -14.4967  -6.3011  -6.1674
    -2.6529  -2.4651  -2.4592  -2.3566  -1.4004  -0.9469   0.1976   0.2482
     0.3870   0.4125   0.5314   0.8884   0.9757   1.2004   1.2030   1.3903

          k = 0.5000 0.6736-0.0680 (  7294 PWs)   bands (ev):

   -38.5630 -38.5625 -19.5508 -19.5453 -19.4812 -19.4716 -19.4567 -19.4505
   -15.7291 -15.6812 -14.6145 -14.5957 -14.5253 -14.5060  -6.2750  -6.1815
    -2.6396  -2.5223  -2.4174  -2.3370  -1.2874  -1.0457   0.1058   0.1420
     0.4428   0.4973   0.5931   0.7782   1.0298   1.1278   1.2204   1.3902

          k = 0.3333 0.5774 0.0000 (  7290 PWs)   bands (ev):

   -38.5628 -38.5628 -19.5475 -19.5469 -19.4767 -19.4746 -19.4561 -19.4546
   -15.7044 -15.7040 -14.6067 -14.6023 -14.5197 -14.5155  -6.2256  -6.2252
    -2.5947  -2.5602  -2.4026  -2.3647  -1.1430  -1.1415   0.0277   0.0475
     0.4215   0.5234   0.6635   0.7209   1.0760   1.1416   1.2475   1.3983

          k = 0.5000-0.2887-0.4082 (  7216 PWs)   bands (ev):

   -38.5631 -38.5624 -19.5518 -19.5459 -19.4834 -19.4720 -19.4552 -19.4482
   -15.7240 -15.6833 -14.6244 -14.5966 -14.5125 -14.5111  -6.2911  -6.1641
    -2.6810  -2.4701  -2.4380  -2.3124  -1.3091  -1.0680   0.1579   0.2115
     0.4192   0.5324   0.5890   0.7382   0.9898   1.1071   1.2300   1.3704

          k = 0.0000 0.0000 0.2041 (  7333 PWs)   bands (ev):

   -38.5636 -38.5619 -19.5567 -19.5358 -19.4757 -19.4757 -19.4532 -19.4532
   -15.8478 -15.5971 -14.6154 -14.6154 -14.4856 -14.4856  -6.3204  -6.1851
    -2.5402  -2.5402  -2.4664  -2.4664  -1.6057  -0.6363   0.2922   0.2922
     0.4269   0.4269   0.6119   0.6119   0.8540   1.3481   1.4169   1.4169

          k =-0.1667-0.0962 0.2722 (  7327 PWs)   bands (ev):

   -38.5634 -38.5621 -19.5545 -19.5386 -19.4766 -19.4703 -19.4592 -19.4531
   -15.8126 -15.6259 -14.6062 -14.5933 -14.5107 -14.4991  -6.3052  -6.1921
    -2.5459  -2.5207  -2.4930  -2.4246  -1.4990  -0.7796   0.2777   0.2957
     0.3242   0.4492   0.5911   0.7398   0.9374   1.2266   1.3284   1.4071

          k = 0.6667 0.3849-0.0680 (  7307 PWs)   bands (ev):

   -38.5630 -38.5625 -19.5501 -19.5432 -19.4748 -19.4670 -19.4637 -19.4562
   -15.7542 -15.6696 -14.5967 -14.5637 -14.5450 -14.5211  -6.2589  -6.2142
    -2.5728  -2.4984  -2.4841  -2.3920  -1.3079  -0.9869   0.1405   0.1645
     0.3886   0.4085   0.6710   0.8554   1.0120   1.0606   1.3071   1.3793

          k = 0.5000 0.2887 0.0000 (  7293 PWs)   bands (ev):

   -38.5629 -38.5626 -19.5482 -19.5446 -19.4748 -19.4699 -19.4614 -19.4567
   -15.7194 -15.6985 -14.5959 -14.5702 -14.5427 -14.5251  -6.2602  -6.1973
    -2.6306  -2.4632  -2.4362  -2.4028  -1.2119  -1.0869   0.0562   0.1148
     0.3523   0.4351   0.6713   0.8695   1.0129   1.1313   1.3270   1.3528

          k = 0.3333 0.1925 0.0680 (  7295 PWs)   bands (ev):

   -38.5633 -38.5622 -19.5528 -19.5394 -19.4788 -19.4670 -19.4637 -19.4519
   -15.7807 -15.6480 -14.6092 -14.5614 -14.5512 -14.5004  -6.3017  -6.1642
    -2.6353  -2.4792  -2.4323  -2.4088  -1.4372  -0.8705   0.1365   0.2095
     0.3143   0.3784   0.5957   0.8302   1.0099   1.2819   1.3437   1.3543

          k =-0.1667 0.0962 0.3402 (  7295 PWs)   bands (ev):

   -38.5633 -38.5622 -19.5539 -19.5404 -19.4780 -19.4664 -19.4625 -19.4517
   -15.7961 -15.6404 -14.6078 -14.5753 -14.5326 -14.4953  -6.3035  -6.1973
    -2.5839  -2.4868  -2.4820  -2.4166  -1.4502  -0.8486   0.2839   0.3118
     0.3912   0.4027   0.6029   0.7965   0.9707   1.1869   1.2307   1.3725

          k = 0.6667 0.5774 0.0000 (  7296 PWs)   bands (ev):

   -38.5631 -38.5624 -19.5514 -19.5439 -19.4782 -19.4688 -19.4604 -19.4523
   -15.7533 -15.6699 -14.6041 -14.5658 -14.5495 -14.5068  -6.2759  -6.2054
    -2.5868  -2.5342  -2.4384  -2.3800  -1.3264  -0.9950   0.2067   0.2118
     0.4075   0.4831   0.6030   0.8624   1.0100   1.0817   1.1983   1.3532

          k = 0.5000 0.4811 0.0680 (  7282 PWs)   bands (ev):

   -38.5628 -38.5628 -19.5476 -19.5475 -19.4759 -19.4745 -19.4558 -19.4550
   -15.7118 -15.6996 -14.6076 -14.5878 -14.5300 -14.5149  -6.2374  -6.2214
    -2.6125  -2.5311  -2.4018  -2.3773  -1.1675  -1.1400   0.0748   0.1086
     0.4461   0.4842   0.6407   0.7971   1.0381   1.1342   1.2309   1.3484

          k = 0.3333 0.3849 0.1361 (  7296 PWs)   bands (ev):

   -38.5631 -38.5624 -19.5506 -19.5432 -19.4789 -19.4699 -19.4608 -19.4522
   -15.7395 -15.6766 -14.6077 -14.5857 -14.5328 -14.5096  -6.2768  -6.1788
    -2.6405  -2.4925  -2.4175  -2.3793  -1.3031  -1.0029   0.0536   0.1275
     0.3754   0.4468   0.6191   0.8328   1.0314   1.2043   1.2883   1.3578

          k = 0.6667-0.3849-0.3402 (  7294 PWs)   bands (ev):

   -38.5630 -38.5625 -19.5513 -19.5458 -19.4806 -19.4711 -19.4566 -19.4504
   -15.7318 -15.6842 -14.6085 -14.5864 -14.5315 -14.5078  -6.2836  -6.1900
    -2.6443  -2.4878  -2.4401  -2.3465  -1.2940  -1.0629   0.1953   0.2493
     0.4286   0.4963   0.6271   0.8126   0.9587   1.1243   1.1696   1.3261

          k = 0.5000-0.4811-0.2722 (  7272 PWs)   bands (ev):

   -38.5629 -38.5626 -19.5498 -19.5469 -19.4798 -19.4738 -19.4548 -19.4515
   -15.7142 -15.6938 -14.6136 -14.5985 -14.5180 -14.5137  -6.2608  -6.1974
    -2.6313  -2.5346  -2.4009  -2.3456  -1.2285  -1.1049   0.1039   0.1343
     0.4873   0.5553   0.6044   0.7091   1.0274   1.1347   1.2231   1.3302

          k = 0.3333-0.5774-0.2041 (  7282 PWs)   bands (ev):

   -38.5628 -38.5628 -19.5472 -19.5472 -19.4757 -19.4757 -19.4553 -19.4553
   -15.7042 -15.7042 -14.6045 -14.6045 -14.5175 -14.5175  -6.2254  -6.2254
    -2.5791  -2.5791  -2.3820  -2.3820  -1.1423  -1.1423   0.0370   0.0370
     0.4695   0.4695   0.6937   0.6937   1.0968   1.0968   1.3369   1.3369

          k = 0.5000-0.2887-0.2041 (  7294 PWs)   bands (ev):

   -38.5630 -38.5625 -19.5508 -19.5453 -19.4811 -19.4717 -19.4569 -19.4505
   -15.7232 -15.6876 -14.6164 -14.5894 -14.5222 -14.5130  -6.2828  -6.1732
    -2.6704  -2.4592  -2.4366  -2.3459  -1.2811  -1.0696   0.1113   0.1791
     0.4394   0.4407   0.5809   0.9037   0.9285   1.2075   1.2447   1.3006

          k = 0.0000 0.0000 0.4082 (  7297 PWs)   bands (ev):

   -38.5632 -38.5623 -19.5531 -19.5412 -19.4711 -19.4711 -19.4581 -19.4581
   -15.7937 -15.6491 -14.5881 -14.5881 -14.5132 -14.5132  -6.2996  -6.2214
    -2.5163  -2.5163  -2.4719  -2.4719  -1.4079  -0.8605   0.3111   0.3111
     0.3874   0.3874   0.7755   0.7755   0.9362   1.2163   1.2358   1.2358

          k = 0.8333 0.4811 0.0680 (  7307 PWs)   bands (ev):

   -38.5630 -38.5625 -19.5511 -19.5441 -19.4738 -19.4667 -19.4632 -19.4554
   -15.7590 -15.6751 -14.5904 -14.5598 -14.5440 -14.5184  -6.2767  -6.2317
    -2.5431  -2.5180  -2.4693  -2.4235  -1.3051  -0.9938   0.2811   0.2917
     0.3526   0.4612   0.6902   0.9404   1.0084   1.0415   1.1837   1.2347

          k = 0.6667 0.3849 0.1361 (  7290 PWs)   bands (ev):

   -38.5628 -38.5628 -19.5484 -19.5477 -19.4755 -19.4737 -19.4558 -19.4548
   -15.7192 -15.6978 -14.6055 -14.5725 -14.5353 -14.5198  -6.2519  -6.2239
    -2.6181  -2.4930  -2.4348  -2.3796  -1.1879  -1.1422   0.1560   0.2090
     0.4353   0.5427   0.5720   0.9122   0.9472   1.1509   1.2062   1.2320

          k = 0.8333-0.4811-0.2722 (  7293 PWs)   bands (ev):

   -38.5629 -38.5626 -19.5498 -19.5461 -19.4736 -19.4686 -19.4602 -19.4564
   -15.7373 -15.6959 -14.5805 -14.5626 -14.5470 -14.5234  -6.2728  -6.2374
    -2.5622  -2.5095  -2.4533  -2.4215  -1.2353  -1.0720   0.2779   0.3251
     0.3819   0.3987   0.7997   0.9265   0.9868   1.0710   1.1136   1.1904

          k = 0.6667-0.5774-0.2041 (  7282 PWs)   bands (ev):

   -38.5628 -38.5628 -19.5483 -19.5483 -19.4745 -19.4745 -19.4551 -19.4551
   -15.7099 -15.7099 -14.5890 -14.5890 -14.5257 -14.5257  -6.2424  -6.2424
    -2.5655  -2.5655  -2.3984  -2.3984  -1.1649  -1.1649   0.2081   0.2081
     0.4760   0.4760   0.7417   0.7417   1.0688   1.0688   1.1988   1.1988

          k = 0.0000 0.0000-0.6124 (  7336 PWs)   bands (ev):

   -38.5628 -38.5628 -19.5476 -19.5476 -19.4647 -19.4647 -19.4647 -19.4647
   -15.7209 -15.7209 -14.5507 -14.5507 -14.5507 -14.5507  -6.2644  -6.2644
    -2.4895  -2.4895  -2.4895  -2.4895  -1.1391  -1.1391   0.3450   0.3450
     0.3450   0.3450   1.0004   1.0004   1.0004   1.0004   1.0646   1.0646

     highest occupied level (ev):     1.4852

!    total energy              =    -366.40793954 Ry
     Harris-Foulkes estimate   =    -366.40793954 Ry
     estimated scf accuracy    <          6.4E-09 Ry

     The total energy is the sum of the following terms:

     one-electron contribution =    -166.42447432 Ry
     hartree contribution      =     105.51375731 Ry
     xc contribution           =     -72.64378720 Ry
     ewald contribution        =    -232.85343533 Ry

     convergence has been achieved in  10 iterations

     Forces acting on atoms (cartesian axes, Ry/au):

     atom    1 type  1   force =     0.00000000   -0.00000000   -0.00000000
     atom    2 type  1   force =     0.00000000    0.00000000    0.00000000
     atom    3 type  2   force =    -0.00000000    0.00000000    0.00000000
     atom    4 type  2   force =     0.00000000    0.00000000    0.00000000
     atom    5 type  3   force =    -0.12156627    0.21055895    0.00000000
     atom    6 type  3   force =     0.24313253   -0.00000000   -0.00000000
     atom    7 type  3   force =    -0.12156627   -0.21055895   -0.00000000
     atom    8 type  3   force =    -0.24313253    0.00000000    0.00000000
     atom    9 type  3   force =     0.12156627    0.21055895    0.00000000
     atom   10 type  3   force =     0.12156627   -0.21055895   -0.00000000

     Total force =     0.595551     Total SCF correction =     0.000030


     Computing stress (Cartesian axis) and pressure

          total   stress  (Ry/bohr**3)                   (kbar)     P= -287.55
  -0.00283238   0.00000000  -0.00000000       -416.66      0.00     -0.00
  -0.00000000  -0.00283238  -0.00000000         -0.00   -416.66     -0.00
  -0.00000000  -0.00000000  -0.00019932         -0.00     -0.00    -29.32


     number of scf cycles    =  14
     number of bfgs steps    =  11

     enthalpy old            =    -367.4293880388 Ry
     enthalpy new            =    -366.4071089227 Ry

     CASE: enthalpy_new > enthalpy_old

     new trust radius        =       0.0012360046 bohr
     new conv_thr            =       0.0000000100 Ry

     new unit-cell volume =    854.06660 a.u.^3 (   126.55961 Ang^3 )
     density =      2.62645 g/cm^3

CELL_PARAMETERS (alat= 12.00000000)
   0.397134598  -0.229285767   0.904652797
  -0.000000000   0.458571534   0.904652797
  -0.397134598  -0.229285767   0.904652797

ATOMIC_POSITIONS (crystal)
Ca       0.500000000   0.500000000   0.500000000
Ca      -0.000000000   0.000000000  -0.000000000
C        0.250000000   0.250000000   0.250000000
C        0.750000000   0.750000000   0.750000000
O        0.507154776   0.992845224   0.250000000
O        0.992845224   0.250000000   0.507154776
O        0.250000000   0.507154776   0.992845224
O        0.007154776   0.750000000   0.492845224
O        0.750000000   0.492845224   0.007154776
O        0.492845224   0.007154776   0.750000000



     Writing output data file CCO_k.save/
     NEW-OLD atomic charge density approx. for the potential

     Check: negative core charge=   -0.000003

     negative rho (up, down):  7.780E-02 0.000E+00
     extrapolated charge   36.44238, renormalised to   64.00000

     total cpu time spent up to now is     1167.9 secs

     Self-consistent Calculation

     iteration #  1     ecut=    50.00 Ry     beta= 0.70
     CG style diagonalization
     c_bands:  5 eigenvalues not converged
     c_bands:  2 eigenvalues not converged
     c_bands:  2 eigenvalues not converged
     ethr =  1.00E-06,  avg # of iterations = 19.7

     negative rho (up, down):  2.873E-02 0.000E+00

     total cpu time spent up to now is     1687.1 secs

     total energy              =    -342.78209500 Ry
     Harris-Foulkes estimate   =    -415.62864209 Ry
     estimated scf accuracy    <      26.99659842 Ry

     iteration #  2     ecut=    50.00 Ry     beta= 0.70
     CG style diagonalization
     ethr =  1.00E-02,  avg # of iterations =  6.9

     total cpu time spent up to now is     1871.0 secs

     total energy              =    -361.03318061 Ry
     Harris-Foulkes estimate   =    -384.54617486 Ry
     estimated scf accuracy    <      59.30456476 Ry

     iteration #  3     ecut=    50.00 Ry     beta= 0.70
     CG style diagonalization
     ethr =  1.00E-02,  avg # of iterations =  4.5

     total cpu time spent up to now is     1992.2 secs

     total energy              =    -367.27192939 Ry
     Harris-Foulkes estimate   =    -368.65158784 Ry
     estimated scf accuracy    <       3.64890839 Ry

     iteration #  4     ecut=    50.00 Ry     beta= 0.70
     CG style diagonalization
     ethr =  5.70E-03,  avg # of iterations =  3.4

     total cpu time spent up to now is     2082.1 secs

     total energy              =    -367.31056853 Ry
     Harris-Foulkes estimate   =    -367.66049991 Ry
     estimated scf accuracy    <       0.98678683 Ry

     iteration #  5     ecut=    50.00 Ry     beta= 0.70
     CG style diagonalization
     ethr =  1.54E-03,  avg # of iterations =  3.6

     total cpu time spent up to now is     2177.4 secs

     total energy              =    -367.40165568 Ry
     Harris-Foulkes estimate   =    -367.44189082 Ry
     estimated scf accuracy    <       0.09133539 Ry

     iteration #  6     ecut=    50.00 Ry     beta= 0.70
     CG style diagonalization
     ethr =  1.43E-04,  avg # of iterations =  4.1

     total cpu time spent up to now is     2285.3 secs

     total energy              =    -367.42823451 Ry
     Harris-Foulkes estimate   =    -367.43375260 Ry
     estimated scf accuracy    <       0.00930204 Ry

     iteration #  7     ecut=    50.00 Ry     beta= 0.70
     CG style diagonalization
     ethr =  1.45E-05,  avg # of iterations =  4.0

     total cpu time spent up to now is     2390.9 secs

     total energy              =    -367.43204037 Ry
     Harris-Foulkes estimate   =    -367.43235336 Ry
     estimated scf accuracy    <       0.00062509 Ry

     iteration #  8     ecut=    50.00 Ry     beta= 0.70
     CG style diagonalization
     ethr =  9.77E-07,  avg # of iterations =  4.1

     total cpu time spent up to now is     2498.4 secs

     total energy              =    -367.43234118 Ry
     Harris-Foulkes estimate   =    -367.43234080 Ry
     estimated scf accuracy    <       0.00002172 Ry

     iteration #  9     ecut=    50.00 Ry     beta= 0.70
     CG style diagonalization
     ethr =  3.39E-08,  avg # of iterations =  4.4

     total cpu time spent up to now is     2613.9 secs

     total energy              =    -367.43234894 Ry
     Harris-Foulkes estimate   =    -367.43235654 Ry
     estimated scf accuracy    <       0.00001923 Ry

     iteration # 10     ecut=    50.00 Ry     beta= 0.70
     CG style diagonalization
     ethr =  3.01E-08,  avg # of iterations =  3.6

     total cpu time spent up to now is     2709.7 secs

     total energy              =    -367.43235090 Ry
     Harris-Foulkes estimate   =    -367.43235140 Ry
     estimated scf accuracy    <       0.00000101 Ry

     iteration # 11     ecut=    50.00 Ry     beta= 0.70
     CG style diagonalization
     ethr =  1.58E-09,  avg # of iterations =  4.0

     total cpu time spent up to now is     2817.7 secs

     total energy              =    -367.43235126 Ry
     Harris-Foulkes estimate   =    -367.43235129 Ry
     estimated scf accuracy    <       0.00000005 Ry

     iteration # 12     ecut=    50.00 Ry     beta= 0.70
     CG style diagonalization
     ethr =  7.54E-11,  avg # of iterations =  4.4

     total cpu time spent up to now is     2935.7 secs

     End of self-consistent calculation

          k = 0.0000 0.0000 0.0000 (  7391 PWs)   bands (ev):

   -33.6871 -33.6745 -17.0814 -17.0700 -15.1213 -15.1213 -14.7534 -14.7534
   -14.6590 -14.5498 -13.9022 -13.9022 -13.3681 -13.3681  -3.3129  -3.0392
    -1.6893  -1.5325  -1.5325  -1.2717  -1.2717  -0.4005   2.3570   2.3570
     2.7953   2.7953   2.9652   2.9652   3.5768   3.5768   3.7751   4.2029

          k =-0.2098-0.1211 0.0614 (  7333 PWs)   bands (ev):

   -33.6861 -33.6752 -17.0889 -17.0537 -15.1199 -15.0451 -14.8521 -14.7512
   -14.6858 -14.6481 -13.8455 -13.7153 -13.4718 -13.3887  -3.2075  -3.0498
    -1.5978  -1.4895  -1.4455  -1.3123  -1.2594  -0.5111   2.4058   2.4685
     2.6900   2.7273   2.8023   2.8567   3.4259   3.4518   3.9888   4.2128

          k =-0.4197-0.2423 0.1228 (  7297 PWs)   bands (ev):

   -33.6836 -33.6773 -17.0978 -17.0239 -15.1094 -15.0023 -14.9854 -14.8294
   -14.6616 -14.6443 -13.7273 -13.6109 -13.5500 -13.4546  -3.0216  -3.0192
    -1.5365  -1.4129  -1.2740  -1.2681  -1.2031  -0.7075   2.2893   2.3643
     2.5754   2.5984   2.7231   2.8292   3.1998   3.2338   4.2466   4.2615

          k = 0.6295 0.3634-0.1842 (  7336 PWs)   bands (ev):

   -33.6803 -33.6803 -17.0569 -17.0569 -15.0094 -15.0094 -14.9957 -14.9957
   -14.6399 -14.6399 -13.5851 -13.5851 -13.5691 -13.5691  -2.9589  -2.9589
    -1.4976  -1.4976  -1.2250  -1.2250  -0.9151  -0.9151   2.1613   2.1613
     2.5481   2.5481   2.8431   2.8431   3.1033   3.1033   4.3163   4.3163

          k =-0.2098 0.1211 0.1228 (  7303 PWs)   bands (ev):

   -33.6859 -33.6754 -17.0930 -17.0505 -15.0824 -15.0811 -14.8161 -14.7611
   -14.7011 -14.6742 -13.7814 -13.7543 -13.4432 -13.4277  -3.1984  -3.0671
    -1.5624  -1.4783  -1.4682  -1.3115  -1.2515  -0.5342   2.4068   2.4674
     2.6689   2.6937   2.8285   2.9074   3.3645   3.4881   3.9934   4.1983

          k =-0.4197-0.0000 0.1842 (  7295 PWs)   bands (ev):

   -33.6841 -33.6769 -17.1065 -17.0218 -15.1093 -15.0656 -14.8656 -14.8075
   -14.6802 -14.6717 -13.7291 -13.7003 -13.4769 -13.4546  -3.0559  -3.0494
    -1.5057  -1.4082  -1.3933  -1.2359  -1.2186  -0.6829   2.3358   2.4380
     2.5827   2.5951   2.7167   2.8606   3.1613   3.3487   4.2150   4.2271

          k = 0.6295 0.6057-0.1228 (  7293 PWs)   bands (ev):

   -33.6814 -33.6793 -17.0705 -17.0456 -15.1123 -15.0170 -14.9534 -14.8799
   -14.6563 -14.6458 -13.7358 -13.6141 -13.5367 -13.4445  -2.9618  -2.9550
    -1.4881  -1.4716  -1.2993  -1.2143  -0.9688  -0.8260   2.1688   2.2337
     2.4876   2.5185   2.7344   2.8160   3.1105   3.2111   4.3224   4.3377

          k = 0.4197 0.4846-0.0614 (  7307 PWs)   bands (ev):

   -33.6821 -33.6785 -17.1007 -17.0113 -15.1454 -15.0130 -14.9998 -14.7981
   -14.6802 -14.6144 -13.7852 -13.6095 -13.5363 -13.4180  -3.0033  -2.9099
    -1.5545  -1.3852  -1.2821  -1.2135  -1.0556  -0.7906   2.1169   2.3172
     2.4389   2.5418   2.6941   2.8403   3.1520   3.2063   4.2744   4.3882

          k = 0.2098 0.3634 0.0000 (  7327 PWs)   bands (ev):

   -33.6847 -33.6763 -17.1118 -17.0138 -15.1069 -15.0758 -14.8849 -14.7782
   -14.6987 -14.6586 -13.7229 -13.7166 -13.4636 -13.4574  -3.0509  -3.0433
    -1.5401  -1.3983  -1.3465  -1.3050  -1.2300  -0.6483   2.3429   2.4993
     2.5283   2.6437   2.6473   2.8315   3.2306   3.3480   4.2201   4.2316

          k =-0.4197 0.2423 0.2456 (  7275 PWs)   bands (ev):

   -33.6836 -33.6773 -17.1372 -16.9838 -15.1481 -15.1219 -14.7910 -14.7326
   -14.7111 -14.6811 -13.7930 -13.7342 -13.4516 -13.4110  -3.1110  -2.9370
    -1.5364  -1.3883  -1.3446  -1.2116  -1.1196  -0.7661   2.1503   2.3816
     2.5016   2.7116   2.7194   2.9645   2.9931   3.3507   4.1654   4.3316

          k = 0.6295 0.8480-0.0614 (  7294 PWs)   bands (ev):

   -33.6821 -33.6785 -17.1249 -16.9894 -15.1824 -15.0919 -14.8377 -14.7646
   -14.6924 -14.6348 -13.8653 -13.6824 -13.4720 -13.3738  -3.0561  -2.8595
    -1.5278  -1.4220  -1.3128  -1.1964  -0.9653  -0.8161   2.0265   2.2676
     2.4831   2.6358   2.6958   2.7442   3.1190   3.2719   4.2220   4.4336

          k = 0.4197 0.7269 0.0000 (  7290 PWs)   bands (ev):

   -33.6803 -33.6803 -17.0573 -17.0570 -15.1096 -15.0747 -14.9082 -14.8190
   -14.7077 -14.6495 -13.7279 -13.7210 -13.4454 -13.4421  -2.9227  -2.9222
    -1.5191  -1.4095  -1.3514  -1.1958  -0.8856  -0.8395   2.1364   2.1481
     2.4644   2.4816   2.6636   2.7002   3.1846   3.2280   4.3748   4.3783

          k = 0.6295-0.3634-0.3685 (  7216 PWs)   bands (ev):

   -33.6824 -33.6782 -17.1585 -16.9474 -15.2088 -15.2065 -14.7360 -14.7089
   -14.6859 -14.5599 -13.9421 -13.8331 -13.3825 -13.3418  -3.1295  -2.7816
    -1.5912  -1.3754  -1.2494  -1.1837  -0.9629  -0.8617   1.9189   2.2388
     2.5132   2.6932   2.7364   2.7493   3.1358   3.2576   4.1302   4.4917

          k = 0.0000 0.0000 0.1842 (  7333 PWs)   bands (ev):

   -33.6862 -33.6753 -17.0813 -17.0714 -15.1038 -15.1038 -14.7912 -14.7912
   -14.6507 -14.5562 -13.8534 -13.8534 -13.3969 -13.3969  -3.3064  -3.0763
    -1.5890  -1.5149  -1.5149  -1.2893  -1.2893  -0.4783   2.3869   2.3869
     2.7612   2.7612   3.0065   3.0065   3.5291   3.5291   3.8000   4.1665

          k =-0.2098-0.1211 0.2456 (  7327 PWs)   bands (ev):

   -33.6849 -33.6765 -17.0815 -17.0631 -15.1221 -14.9962 -14.9456 -14.7355
   -14.6903 -14.6141 -13.8353 -13.6525 -13.5327 -13.3971  -3.2132  -3.0768
    -1.5189  -1.4751  -1.3741  -1.3048  -1.2979  -0.6075   2.4191   2.4895
     2.6639   2.6960   2.8128   2.9658   3.3368   3.4038   3.9994   4.1809

          k = 0.8393 0.4846-0.0614 (  7307 PWs)   bands (ev):

   -33.6823 -33.6786 -17.0648 -17.0615 -15.1084 -15.0234 -14.9564 -14.8221
   -14.6787 -14.6279 -13.7431 -13.5979 -13.5782 -13.4346  -3.0786  -2.9753
    -1.4739  -1.4637  -1.3239  -1.2593  -1.0741  -0.7711   2.2725   2.3639
     2.5442   2.6098   2.7353   2.9241   3.0999   3.2042   4.2134   4.2830

          k = 0.6295 0.3634 0.0000 (  7293 PWs)   bands (ev):

   -33.6814 -33.6793 -17.1085 -17.0034 -15.1136 -15.1088 -14.8820 -14.8663
   -14.6793 -14.6002 -13.7382 -13.6855 -13.4702 -13.4559  -3.0449  -2.8713
    -1.5708  -1.3800  -1.2929  -1.1841  -0.9724  -0.8626   2.0435   2.2590
     2.4553   2.6507   2.7326   2.9863   2.9966   3.1689   4.2311   4.4001

          k = 0.4197 0.2423 0.0614 (  7295 PWs)   bands (ev):

   -33.6841 -33.6768 -17.1252 -16.9939 -15.1360 -15.0780 -14.8949 -14.7599
   -14.7013 -14.6466 -13.7831 -13.6330 -13.5252 -13.4198  -3.0688  -2.9690
    -1.5489  -1.3880  -1.3124  -1.2403  -1.2030  -0.7100   2.2012   2.4298
     2.5092   2.6468   2.6737   2.9246   3.1125   3.3249   4.2034   4.3046

          k =-0.2098 0.1211 0.3071 (  7295 PWs)   bands (ev):

   -33.6843 -33.6770 -17.0924 -17.0540 -15.0997 -15.0110 -14.9060 -14.7827
   -14.6775 -14.6511 -13.7566 -13.6766 -13.5073 -13.4512  -3.1864  -3.1189
    -1.4820  -1.4442  -1.4047  -1.2792  -1.2792  -0.6713   2.4305   2.4847
     2.6164   2.6649   2.8859   3.0269   3.2378   3.4319   4.0184   4.1448

          k = 0.8393 0.7269 0.0000 (  7296 PWs)   bands (ev):

   -33.6826 -33.6784 -17.0912 -17.0424 -15.1020 -15.0582 -14.8581 -14.7977
   -14.7166 -14.6613 -13.7211 -13.6886 -13.4884 -13.4635  -3.0653  -3.0617
    -1.4483  -1.4262  -1.3967  -1.2613  -1.0832  -0.7823   2.3273   2.3712
     2.5894   2.6380   2.7509   2.9258   3.0760   3.2937   4.2072   4.2167

          k = 0.6295 0.6057 0.0614 (  7282 PWs)   bands (ev):

   -33.6803 -33.6803 -17.0826 -17.0366 -15.1177 -15.0496 -14.9258 -14.7996
   -14.6916 -14.6662 -13.7598 -13.6500 -13.5103 -13.4220  -3.0120  -2.9077
    -1.5271  -1.3821  -1.3555  -1.2185  -0.8878  -0.8699   2.1174   2.2126
     2.4941   2.5962   2.6970   2.7997   3.1241   3.1919   4.2840   4.3735

          k = 0.4197 0.4846 0.1228 (  7296 PWs)   bands (ev):

   -33.6824 -33.6782 -17.1206 -16.9905 -15.1835 -15.0581 -14.9344 -14.7318
   -14.7030 -14.6071 -13.8629 -13.6083 -13.5367 -13.3747  -3.0402  -2.8724
    -1.5604  -1.3742  -1.2729  -1.2331  -1.0370  -0.7905   2.0560   2.3300
     2.4200   2.5968   2.6744   2.8338   3.1255   3.2526   4.2364   4.4239

          k = 0.8393-0.4846-0.3071 (  7294 PWs)   bands (ev):

   -33.6822 -33.6786 -17.1298 -16.9957 -15.1774 -15.0750 -14.8093 -14.7491
   -14.7232 -14.6331 -13.8043 -13.7478 -13.4428 -13.4092  -3.1311  -2.9301
    -1.5392  -1.3804  -1.2982  -1.2485  -1.0141  -0.8500   2.1486   2.3311
     2.5734   2.7167   2.7470   2.8540   3.0490   3.2921   4.1532   4.3339

          k = 0.6295-0.6057-0.2456 (  7272 PWs)   bands (ev):

   -33.6814 -33.6793 -17.1115 -17.0068 -15.1363 -15.1108 -14.8296 -14.7382
   -14.7087 -14.6992 -13.7917 -13.7257 -13.4426 -13.4107  -3.0462  -2.8728
    -1.5284  -1.4204  -1.2834  -1.2426  -0.9097  -0.8425   2.0479   2.2267
     2.5333   2.6369   2.6750   2.7310   3.1404   3.2234   4.2406   4.4147

          k = 0.4197-0.7269-0.1842 (  7282 PWs)   bands (ev):

   -33.6803 -33.6803 -17.0571 -17.0571 -15.0943 -15.0943 -14.8670 -14.8670
   -14.6730 -14.6730 -13.7244 -13.7244 -13.4437 -13.4437  -2.9224  -2.9224
    -1.4829  -1.4829  -1.2573  -1.2573  -0.8603  -0.8603   2.1421   2.1421
     2.4732   2.4732   2.6809   2.6809   3.2072   3.2072   4.3765   4.3765

          k = 0.6295-0.3634-0.1842 (  7294 PWs)   bands (ev):

   -33.6821 -33.6785 -17.1452 -16.9627 -15.1842 -15.1812 -14.7742 -14.7424
   -14.7066 -14.5709 -13.8789 -13.7890 -13.4051 -13.3712  -3.1069  -2.8059
    -1.5926  -1.3559  -1.2446  -1.2177  -0.9742  -0.8523   1.9527   2.2638
     2.4570   2.7039   2.7246   2.8274   3.1041   3.2250   4.1598   4.4660

          k = 0.0000 0.0000 0.3685 (  7297 PWs)   bands (ev):

   -33.6839 -33.6776 -17.0804 -17.0748 -15.0530 -15.0530 -14.8784 -14.8784
   -14.6289 -14.5744 -13.7361 -13.7361 -13.4784 -13.4784  -3.2823  -3.1562
    -1.4672  -1.4672  -1.3372  -1.3372  -1.3323  -0.6963   2.4674   2.4674
     2.6806   2.6806   3.1089   3.1089   3.4056   3.4056   3.8689   4.0760

          k = 1.0492 0.6057 0.0614 (  7307 PWs)   bands (ev):

   -33.6825 -33.6789 -17.0754 -17.0721 -15.0952 -15.0114 -14.9418 -14.8009
   -14.6620 -14.6073 -13.7625 -13.6049 -13.5854 -13.4470  -3.2048  -3.1236
    -1.4481  -1.4179  -1.3638  -1.3499  -1.1462  -0.8090   2.4499   2.5238
     2.6030   2.6265   2.9274   3.1219   3.1796   3.3099   4.0287   4.1231

          k = 0.8393 0.4846 0.1228 (  7290 PWs)   bands (ev):

   -33.6804 -33.6804 -17.1037 -17.0244 -15.1619 -15.0127 -14.9247 -14.7570
   -14.7115 -14.6147 -13.8045 -13.6663 -13.5110 -13.4041  -3.1197  -2.9444
    -1.5229  -1.3591  -1.3503  -1.2599  -0.9515  -0.8865   2.1926   2.3463
     2.5903   2.6692   2.6878   2.9489   3.0806   3.1867   4.1723   4.3140

          k = 1.0492-0.6057-0.2456 (  7293 PWs)   bands (ev):

   -33.6817 -33.6796 -17.0862 -17.0622 -15.0925 -14.9905 -14.9303 -14.8423
   -14.6499 -14.6236 -13.7269 -13.6026 -13.5783 -13.4806  -3.1723  -3.1633
    -1.4466  -1.4010  -1.3779  -1.3370  -1.0686  -0.8955   2.4861   2.4871
     2.5950   2.6124   2.9975   3.0949   3.1599   3.3039   4.0642   4.0803

          k = 0.8393-0.7269-0.1842 (  7282 PWs)   bands (ev):

   -33.6805 -33.6805 -17.0682 -17.0682 -15.0784 -15.0784 -14.8265 -14.8265
   -14.6908 -14.6908 -13.7004 -13.7004 -13.4804 -13.4804  -3.0689  -3.0689
    -1.4410  -1.4410  -1.3189  -1.3189  -0.9275  -0.9275   2.3347   2.3347
     2.6200   2.6200   2.8384   2.8384   3.1762   3.1762   4.2076   4.2076

          k = 0.0000 0.0000-0.5527 (  7336 PWs)   bands (ev):

   -33.6808 -33.6808 -17.0783 -17.0783 -14.9738 -14.9738 -14.9738 -14.9738
   -14.6007 -14.6007 -13.5992 -13.5992 -13.5992 -13.5992  -3.2322  -3.2322
    -1.4022  -1.4022  -1.4022  -1.4022  -1.0059  -1.0059   2.5750   2.5750
     2.5750   2.5750   3.2510   3.2510   3.2510   3.2510   3.9674   3.9674

     highest occupied level (ev):     4.4917

!    total energy              =    -367.43235130 Ry
     Harris-Foulkes estimate   =    -367.43235130 Ry
     estimated scf accuracy    <          8.0E-09 Ry

     The total energy is the sum of the following terms:

     one-electron contribution =    -148.03307685 Ry
     hartree contribution      =     103.41335947 Ry
     xc contribution           =     -75.27036930 Ry
     ewald contribution        =    -247.54226462 Ry

     convergence has been achieved in  12 iterations

     Forces acting on atoms (cartesian axes, Ry/au):

     atom    1 type  1   force =     0.00000000    0.00000000    0.00000000
     atom    2 type  1   force =     0.00000000    0.00000000    0.00000000
     atom    3 type  2   force =     0.00000000   -0.00000000   -0.00000000
     atom    4 type  2   force =    -0.00000000   -0.00000000   -0.00000000
     atom    5 type  3   force =    -0.00017900    0.00031003    0.00000000
     atom    6 type  3   force =     0.00035799    0.00000000   -0.00000000
     atom    7 type  3   force =    -0.00017900   -0.00031003   -0.00000000
     atom    8 type  3   force =    -0.00035799   -0.00000000    0.00000000
     atom    9 type  3   force =     0.00017900    0.00031003    0.00000000
     atom   10 type  3   force =     0.00017900   -0.00031003   -0.00000000

     Total force =     0.000877     Total SCF correction =     0.000319
     SCF correction compared to forces is large: reduce conv_thr to get better values


     Computing stress (Cartesian axis) and pressure

          total   stress  (Ry/bohr**3)                   (kbar)     P=    0.59
   0.00000485   0.00000000  -0.00000000          0.71      0.00     -0.00
   0.00000000   0.00000485   0.00000000          0.00      0.71      0.00
  -0.00000000   0.00000000   0.00000241         -0.00      0.00      0.36


     number of scf cycles    =   2
     number of bfgs steps    =   1

     enthalpy old            =    -367.4303628420 Ry
     enthalpy new            =    -367.4317707135 Ry

     CASE: enthalpy_new < enthalpy_old

     new trust radius        =       0.0051227734 bohr
     new conv_thr            =            1.0E-10 Ry

     new unit-cell volume =    854.10204 a.u.^3 (   126.56486 Ang^3 )
     density =      2.62634 g/cm^3

CELL_PARAMETERS (alat= 12.00000000)
   0.397316991  -0.229391072   0.903859910
  -0.000000000   0.458782143   0.903859910
  -0.397316991  -0.229391072   0.903859910

ATOMIC_POSITIONS (crystal)
Ca       0.500000000   0.500000000   0.500000000
Ca      -0.000000000   0.000000000  -0.000000000
C        0.250000000   0.250000000   0.250000000
C        0.750000000   0.750000000   0.750000000
O        0.506975276   0.993024724   0.250000000
O        0.993024724   0.250000000   0.506975276
O        0.250000000   0.506975276   0.993024724
O        0.006975276   0.750000000   0.493024724
O        0.750000000   0.493024724   0.006975276
O        0.493024724   0.006975276   0.750000000



     Writing output data file CCO_k.save/
     NEW-OLD atomic charge density approx. for the potential

     Check: negative core charge=   -0.000003
     extrapolated charge   64.00266, renormalised to   64.00000

     total cpu time spent up to now is     2974.2 secs

     Self-consistent Calculation

     iteration #  1     ecut=    50.00 Ry     beta= 0.70
     CG style diagonalization
     ethr =  1.00E-06,  avg # of iterations =  3.0

     Threshold (ethr) on eigenvalues was too large:
     Diagonalizing with lowered threshold

     CG style diagonalization
     c_bands:  1 eigenvalues not converged
     c_bands:  1 eigenvalues not converged
     c_bands:  1 eigenvalues not converged
     c_bands:  1 eigenvalues not converged
     c_bands:  1 eigenvalues not converged
     c_bands:  1 eigenvalues not converged
     c_bands:  1 eigenvalues not converged
     c_bands:  1 eigenvalues not converged
     ethr =  6.67E-09,  avg # of iterations =  6.0

     total cpu time spent up to now is     3230.1 secs

     total energy              =    -367.43235070 Ry
     Harris-Foulkes estimate   =    -367.42760471 Ry
     estimated scf accuracy    <       0.00000632 Ry

     iteration #  2     ecut=    50.00 Ry     beta= 0.70
     CG style diagonalization
     ethr =  9.88E-09,  avg # of iterations =  3.9

     total cpu time spent up to now is     3332.0 secs

     total energy              =    -367.43235219 Ry
     Harris-Foulkes estimate   =    -367.43235387 Ry
     estimated scf accuracy    <       0.00000300 Ry

     iteration #  3     ecut=    50.00 Ry     beta= 0.70
     CG style diagonalization
     ethr =  4.69E-09,  avg # of iterations =  3.6

     total cpu time spent up to now is     3427.3 secs

     total energy              =    -367.43235297 Ry
     Harris-Foulkes estimate   =    -367.43235302 Ry
     estimated scf accuracy    <       0.00000013 Ry

     iteration #  4     ecut=    50.00 Ry     beta= 0.70
     CG style diagonalization
     ethr =  2.10E-10,  avg # of iterations =  4.0

     total cpu time spent up to now is     3533.3 secs

     total energy              =    -367.43235302 Ry
     Harris-Foulkes estimate   =    -367.43235302 Ry
     estimated scf accuracy    <       0.00000001 Ry

     iteration #  5     ecut=    50.00 Ry     beta= 0.70
     CG style diagonalization
     ethr =  1.67E-11,  avg # of iterations =  3.8

     total cpu time spent up to now is     3633.6 secs

     total energy              =    -367.43235302 Ry
     Harris-Foulkes estimate   =    -367.43235302 Ry
     estimated scf accuracy    <          6.3E-10 Ry

     iteration #  6     ecut=    50.00 Ry     beta= 0.70
     CG style diagonalization
     ethr =  9.79E-13,  avg # of iterations =  4.1

     total cpu time spent up to now is     3742.6 secs

     total energy              =    -367.43235302 Ry
     Harris-Foulkes estimate   =    -367.43235302 Ry
     estimated scf accuracy    <          1.8E-10 Ry

     iteration #  7     ecut=    50.00 Ry     beta= 0.70
     CG style diagonalization
     ethr =  2.77E-13,  avg # of iterations =  3.9

     total cpu time spent up to now is     3845.2 secs

     End of self-consistent calculation

          k = 0.0000 0.0000 0.0000 (  7391 PWs)   bands (ev):

   -33.6896 -33.6770 -17.0836 -17.0736 -15.1228 -15.1228 -14.7555 -14.7555
   -14.6617 -14.5537 -13.9041 -13.9041 -13.3704 -13.3704  -3.3115  -3.0377
    -1.6907  -1.5328  -1.5328  -1.2727  -1.2727  -0.4013   2.3582   2.3582
     2.7924   2.7924   2.9640   2.9640   3.5780   3.5780   3.7782   4.2058

          k =-0.2097-0.1211 0.0615 (  7333 PWs)   bands (ev):

   -33.6887 -33.6778 -17.0924 -17.0562 -15.1214 -15.0468 -14.8541 -14.7533
   -14.6884 -14.6511 -13.8476 -13.7179 -13.4739 -13.3910  -3.2062  -3.0485
    -1.5994  -1.4900  -1.4462  -1.3130  -1.2606  -0.5118   2.4067   2.4693
     2.6882   2.7261   2.8005   2.8558   3.4277   3.4534   3.9909   4.2150

          k =-0.4195-0.2422 0.1229 (  7297 PWs)   bands (ev):

   -33.6861 -33.6798 -17.1012 -17.0269 -15.1108 -15.0039 -14.9871 -14.8313
   -14.6642 -14.6467 -13.7297 -13.6129 -13.5527 -13.4569  -3.0207  -3.0183
    -1.5381  -1.4139  -1.2752  -1.2697  -1.2041  -0.7082   2.2892   2.3643
     2.5744   2.5975   2.7242   2.8298   3.2019   3.2357   4.2476   4.2626

          k = 0.6292 0.3633-0.1844 (  7336 PWs)   bands (ev):

   -33.6829 -33.6829 -17.0603 -17.0603 -15.0110 -15.0110 -14.9970 -14.9970
   -14.6424 -14.6424 -13.5876 -13.5876 -13.5714 -13.5714  -2.9582  -2.9582
    -1.4990  -1.4990  -1.2267  -1.2267  -0.9160  -0.9160   2.1617   2.1617
     2.5473   2.5473   2.8443   2.8443   3.1054   3.1054   4.3169   4.3169

          k =-0.2097 0.1211 0.1229 (  7303 PWs)   bands (ev):

   -33.6885 -33.6780 -17.0965 -17.0530 -15.0840 -15.0827 -14.8182 -14.7632
   -14.7039 -14.6768 -13.7835 -13.7568 -13.4455 -13.4299  -3.1971  -3.0659
    -1.5639  -1.4788  -1.4689  -1.3123  -1.2526  -0.5349   2.4078   2.4679
     2.6679   2.6916   2.8277   2.9059   3.3659   3.4898   3.9955   4.2005

          k =-0.4195 0.0000 0.1844 (  7295 PWs)   bands (ev):

   -33.6867 -33.6794 -17.1099 -17.0247 -15.1108 -15.0672 -14.8675 -14.8097
   -14.6824 -14.6744 -13.7310 -13.7027 -13.4794 -13.4571  -3.0549  -3.0484
    -1.5071  -1.4095  -1.3943  -1.2371  -1.2195  -0.6836   2.3356   2.4383
     2.5824   2.5937   2.7167   2.8611   3.1628   3.3508   4.2164   4.2283

          k = 0.6292 0.6055-0.1229 (  7293 PWs)   bands (ev):

   -33.6839 -33.6818 -17.0739 -17.0489 -15.1136 -15.0185 -14.9550 -14.8816
   -14.6588 -14.6483 -13.7377 -13.6165 -13.5392 -13.4473  -2.9611  -2.9544
    -1.4894  -1.4731  -1.3009  -1.2156  -0.9697  -0.8268   2.1688   2.2337
     2.4872   2.5180   2.7355   2.8172   3.1124   3.2133   4.3230   4.3383

          k = 0.4195 0.4844-0.0615 (  7307 PWs)   bands (ev):

   -33.6847 -33.6811 -17.1041 -17.0146 -15.1465 -15.0145 -15.0013 -14.8002
   -14.6826 -14.6170 -13.7870 -13.6119 -13.5386 -13.4209  -3.0027  -2.9093
    -1.5561  -1.3865  -1.2836  -1.2151  -1.0568  -0.7912   2.1169   2.3171
     2.4389   2.5411   2.6950   2.8417   3.1538   3.2084   4.2750   4.3888

          k = 0.2097 0.3633 0.0000 (  7327 PWs)   bands (ev):

   -33.6872 -33.6789 -17.1152 -17.0167 -15.1084 -15.0773 -14.8867 -14.7805
   -14.7011 -14.6610 -13.7249 -13.7190 -13.4664 -13.4595  -3.0498  -3.0424
    -1.5418  -1.3992  -1.3478  -1.3057  -1.2314  -0.6489   2.3427   2.4994
     2.5281   2.6434   2.6462   2.8319   3.2325   3.3500   4.2215   4.2328

          k =-0.4195 0.2422 0.2459 (  7275 PWs)   bands (ev):

   -33.6861 -33.6799 -17.1405 -16.9869 -15.1496 -15.1232 -14.7931 -14.7346
   -14.7134 -14.6838 -13.7948 -13.7360 -13.4543 -13.4140  -3.1101  -2.9362
    -1.5375  -1.3895  -1.3466  -1.2124  -1.1209  -0.7667   2.1505   2.3824
     2.5010   2.7114   2.7184   2.9655   2.9942   3.3531   4.1664   4.3326

          k = 0.6292 0.8477-0.0615 (  7294 PWs)   bands (ev):

   -33.6847 -33.6811 -17.1282 -16.9927 -15.1835 -15.0934 -14.8396 -14.7666
   -14.6948 -14.6372 -13.8669 -13.6843 -13.4748 -13.3769  -3.0554  -2.8589
    -1.5289  -1.4237  -1.3149  -1.1971  -0.9666  -0.8169   2.0269   2.2680
     2.4834   2.6351   2.6962   2.7451   3.1207   3.2743   4.2225   4.4341

          k = 0.4195 0.7266 0.0000 (  7290 PWs)   bands (ev):

   -33.6828 -33.6828 -17.0607 -17.0604 -15.1108 -15.0759 -14.9099 -14.8210
   -14.7099 -14.6521 -13.7297 -13.7229 -13.4483 -13.4450  -2.9223  -2.9217
    -1.5208  -1.4106  -1.3531  -1.1969  -0.8867  -0.8405   2.1362   2.1478
     2.4645   2.4820   2.6647   2.7014   3.1866   3.2301   4.3751   4.3786

          k = 0.6292-0.3633-0.3688 (  7216 PWs)   bands (ev):

   -33.6849 -33.6808 -17.1617 -16.9509 -15.2103 -15.2074 -14.7380 -14.7110
   -14.6885 -14.5627 -13.9434 -13.8344 -13.3853 -13.3450  -3.1287  -2.7811
    -1.5923  -1.3772  -1.2517  -1.1841  -0.9645  -0.8623   1.9198   2.2397
     2.5139   2.6935   2.7363   2.7481   3.1374   3.2603   4.1307   4.4922

          k =-0.0000-0.0000 0.1844 (  7333 PWs)   bands (ev):

   -33.6888 -33.6779 -17.0836 -17.0750 -15.1054 -15.1054 -14.7933 -14.7933
   -14.6535 -14.5600 -13.8553 -13.8553 -13.3991 -13.3991  -3.3051  -3.0749
    -1.5902  -1.5153  -1.5153  -1.2903  -1.2903  -0.4791   2.3878   2.3878
     2.7588   2.7588   3.0052   3.0052   3.5302   3.5302   3.8031   4.1694

          k =-0.2097-0.1211 0.2459 (  7327 PWs)   bands (ev):

   -33.6874 -33.6790 -17.0849 -17.0657 -15.1237 -14.9978 -14.9474 -14.7376
   -14.6929 -14.6173 -13.8373 -13.6550 -13.5347 -13.3995  -3.2120  -3.0756
    -1.5202  -1.4757  -1.3748  -1.3054  -1.2991  -0.6082   2.4196   2.4901
     2.6624   2.6946   2.8114   2.9654   3.3379   3.4054   4.0014   4.1831

          k = 0.8390 0.4844-0.0615 (  7307 PWs)   bands (ev):

   -33.6848 -33.6812 -17.0678 -17.0649 -15.1100 -15.0248 -14.9579 -14.8241
   -14.6809 -14.6308 -13.7451 -13.6003 -13.5808 -13.4370  -3.0777  -2.9746
    -1.4751  -1.4650  -1.3250  -1.2609  -1.0749  -0.7720   2.2726   2.3639
     2.5436   2.6088   2.7356   2.9256   3.1013   3.2062   4.2144   4.2840

          k = 0.6292 0.3633 0.0000 (  7293 PWs)   bands (ev):

   -33.6839 -33.6818 -17.1118 -17.0068 -15.1151 -15.1099 -14.8838 -14.8681
   -14.6816 -14.6029 -13.7403 -13.6874 -13.4727 -13.4589  -3.0441  -2.8707
    -1.5723  -1.3812  -1.2945  -1.1859  -0.9737  -0.8632   2.0440   2.2594
     2.4551   2.6496   2.7332   2.9879   2.9982   3.1712   4.2317   4.4007

          k = 0.4195 0.2422 0.0615 (  7295 PWs)   bands (ev):

   -33.6866 -33.6794 -17.1286 -16.9969 -15.1373 -15.0796 -14.8968 -14.7621
   -14.7037 -14.6490 -13.7851 -13.6351 -13.5276 -13.4226  -3.0679  -2.9682
    -1.5504  -1.3891  -1.3139  -1.2416  -1.2041  -0.7105   2.2013   2.4296
     2.5095   2.6465   2.6727   2.9255   3.1143   3.3271   4.2045   4.3057

          k =-0.2097 0.1211 0.3073 (  7295 PWs)   bands (ev):

   -33.6868 -33.6796 -17.0958 -17.0566 -15.1013 -15.0126 -14.9079 -14.7848
   -14.6803 -14.6540 -13.7587 -13.6788 -13.5095 -13.4535  -3.1853  -3.1178
    -1.4830  -1.4447  -1.4058  -1.2801  -1.2800  -0.6720   2.4310   2.4846
     2.6159   2.6632   2.8854   3.0262   3.2385   3.4335   4.0205   4.1469

          k = 0.8390 0.7266 0.0000 (  7296 PWs)   bands (ev):

   -33.6851 -33.6809 -17.0945 -17.0455 -15.1035 -15.0598 -14.8599 -14.7999
   -14.7188 -14.6640 -13.7229 -13.6909 -13.4909 -13.4661  -3.0644  -3.0608
    -1.4492  -1.4273  -1.3981  -1.2622  -1.0841  -0.7832   2.3272   2.3713
     2.5887   2.6375   2.7508   2.9265   3.0770   3.2957   4.2084   4.2179

          k = 0.6292 0.6055 0.0615 (  7282 PWs)   bands (ev):

   -33.6829 -33.6829 -17.0859 -17.0400 -15.1191 -15.0510 -14.9275 -14.8016
   -14.6938 -14.6688 -13.7616 -13.6521 -13.5131 -13.4248  -3.0113  -2.9071
    -1.5286  -1.3833  -1.3569  -1.2198  -0.8887  -0.8712   2.1177   2.2128
     2.4938   2.5958   2.6978   2.8007   3.1261   3.1940   4.2846   4.3740

          k = 0.4195 0.4844 0.1229 (  7296 PWs)   bands (ev):

   -33.6849 -33.6808 -17.1239 -16.9939 -15.1846 -15.0596 -14.9361 -14.7340
   -14.7053 -14.6096 -13.8645 -13.6104 -13.5393 -13.3778  -3.0395  -2.8718
    -1.5618  -1.3757  -1.2743  -1.2345  -1.0383  -0.7910   2.0562   2.3301
     2.4200   2.5961   2.6749   2.8351   3.1272   3.2549   4.2370   4.4244

          k = 0.8390-0.4844-0.3073 (  7294 PWs)   bands (ev):

   -33.6848 -33.6812 -17.1330 -16.9989 -15.1789 -15.0763 -14.8113 -14.7511
   -14.7254 -14.6361 -13.8058 -13.7497 -13.4457 -13.4119  -3.1302  -2.9294
    -1.5403  -1.3816  -1.3000  -1.2491  -1.0154  -0.8507   2.1488   2.3316
     2.5734   2.7158   2.7471   2.8542   3.0503   3.2943   4.1541   4.3349

          k = 0.6292-0.6055-0.2459 (  7272 PWs)   bands (ev):

   -33.6839 -33.6818 -17.1148 -17.0102 -15.1375 -15.1122 -14.8315 -14.7406
   -14.7109 -14.7014 -13.7935 -13.7275 -13.4454 -13.4137  -3.0455  -2.8723
    -1.5297  -1.4220  -1.2851  -1.2434  -0.9110  -0.8434   2.0483   2.2271
     2.5337   2.6365   2.6753   2.7316   3.1422   3.2258   4.2411   4.4152

          k = 0.4195-0.7266-0.1844 (  7282 PWs)   bands (ev):

   -33.6828 -33.6828 -17.0605 -17.0605 -15.0955 -15.0955 -14.8688 -14.8688
   -14.6754 -14.6754 -13.7263 -13.7263 -13.4466 -13.4466  -2.9220  -2.9220
    -1.4845  -1.4845  -1.2586  -1.2586  -0.8613  -0.8613   2.1419   2.1419
     2.4735   2.4735   2.6821   2.6821   3.2092   3.2092   4.3768   4.3768

          k = 0.6292-0.3633-0.1844 (  7294 PWs)   bands (ev):

   -33.6847 -33.6811 -17.1485 -16.9661 -15.1857 -15.1821 -14.7761 -14.7446
   -14.7088 -14.5737 -13.8806 -13.7905 -13.4079 -13.3743  -3.1062  -2.8053
    -1.5939  -1.3577  -1.2453  -1.2198  -0.9757  -0.8529   1.9535   2.2646
     2.4572   2.7042   2.7235   2.8283   3.1057   3.2276   4.1603   4.4666

          k =-0.0000-0.0000 0.3688 (  7297 PWs)   bands (ev):

   -33.6865 -33.6802 -17.0830 -17.0781 -15.0546 -15.0546 -14.8803 -14.8803
   -14.6319 -14.5779 -13.7382 -13.7382 -13.4806 -13.4806  -3.2811  -3.1551
    -1.4676  -1.4676  -1.3379  -1.3379  -1.3331  -0.6969   2.4677   2.4677
     2.6790   2.6790   3.1079   3.1079   3.4060   3.4060   3.8718   4.0788

          k = 1.0487 0.6055 0.0615 (  7307 PWs)   bands (ev):

   -33.6850 -33.6814 -17.0782 -17.0753 -15.0968 -15.0130 -14.9435 -14.8029
   -14.6647 -14.6105 -13.7644 -13.6070 -13.5878 -13.4494  -3.2037  -3.1226
    -1.4488  -1.4187  -1.3643  -1.3510  -1.1469  -0.8097   2.4498   2.5236
     2.6022   2.6255   2.9264   3.1224   3.1801   3.3109   4.0307   4.1252

          k = 0.8390 0.4844 0.1229 (  7290 PWs)   bands (ev):

   -33.6830 -33.6830 -17.1068 -17.0278 -15.1635 -15.0141 -14.9264 -14.7591
   -14.7137 -14.6177 -13.8061 -13.6685 -13.5138 -13.4068  -3.1188  -2.9437
    -1.5241  -1.3602  -1.3512  -1.2615  -0.9522  -0.8877   2.1928   2.3466
     2.5903   2.6683   2.6876   2.9496   3.0823   3.1886   4.1733   4.3150

          k = 1.0487-0.6055-0.2459 (  7293 PWs)   bands (ev):

   -33.6843 -33.6822 -17.0893 -17.0651 -15.0941 -14.9923 -14.9320 -14.8441
   -14.6527 -14.6267 -13.7288 -13.6048 -13.5805 -13.4830  -3.1713  -3.1623
    -1.4476  -1.4015  -1.3788  -1.3377  -1.0694  -0.8961   2.4859   2.4865
     2.5947   2.6117   2.9973   3.0947   3.1601   3.3050   4.0662   4.0823

          k = 0.8390-0.7266-0.1844 (  7282 PWs)   bands (ev):

   -33.6830 -33.6830 -17.0713 -17.0713 -15.0799 -15.0799 -14.8284 -14.8284
   -14.6932 -14.6932 -13.7024 -13.7024 -13.4830 -13.4830  -3.0680  -3.0680
    -1.4421  -1.4421  -1.3199  -1.3199  -0.9284  -0.9284   2.3347   2.3347
     2.6197   2.6197   2.8384   2.8384   3.1778   3.1778   4.2088   4.2088

          k = 0.0000 0.0000-0.5532 (  7336 PWs)   bands (ev):

   -33.6833 -33.6833 -17.0812 -17.0812 -14.9756 -14.9756 -14.9756 -14.9756
   -14.6040 -14.6040 -13.6013 -13.6013 -13.6013 -13.6013  -3.2311  -3.2311
    -1.4028  -1.4028  -1.4028  -1.4028  -1.0064  -1.0064   2.5743   2.5743
     2.5743   2.5743   3.2507   3.2507   3.2507   3.2507   3.9702   3.9702

     highest occupied level (ev):     4.4922

!    total energy              =    -367.43235302 Ry
     Harris-Foulkes estimate   =    -367.43235302 Ry
     estimated scf accuracy    <          5.7E-13 Ry

     The total energy is the sum of the following terms:

     one-electron contribution =    -148.05459348 Ry
     hartree contribution      =     103.42327577 Ry
     xc contribution           =     -75.27213787 Ry
     ewald contribution        =    -247.52889746 Ry

     convergence has been achieved in   7 iterations

     Forces acting on atoms (cartesian axes, Ry/au):

     atom    1 type  1   force =     0.00000000   -0.00000000   -0.00000000
     atom    2 type  1   force =     0.00000000   -0.00000000    0.00000000
     atom    3 type  2   force =     0.00000000    0.00000000    0.00000000
     atom    4 type  2   force =     0.00000000    0.00000000    0.00000000
     atom    5 type  3   force =     0.00026730   -0.00046297   -0.00000000
     atom    6 type  3   force =    -0.00053459    0.00000000    0.00000000
     atom    7 type  3   force =     0.00026730    0.00046297    0.00000000
     atom    8 type  3   force =     0.00053459   -0.00000000   -0.00000000
     atom    9 type  3   force =    -0.00026730   -0.00046297   -0.00000000
     atom   10 type  3   force =    -0.00026730    0.00046297    0.00000000

     Total force =     0.001309     Total SCF correction =     0.000002


     Computing stress (Cartesian axis) and pressure

          total   stress  (Ry/bohr**3)                   (kbar)     P=    1.03
   0.00000847   0.00000000  -0.00000000          1.25      0.00     -0.00
   0.00000000   0.00000847   0.00000000          0.00      1.25      0.00
  -0.00000000   0.00000000   0.00000402         -0.00      0.00      0.59


     BFGS Geometry Optimization

     number of scf cycles    =   1
     number of bfgs steps    =   0

     enthalpy new            =    -367.4317724173 Ry

     new trust radius        =       0.0011376682 bohr
     new conv_thr            =            1.0E-10 Ry

     new unit-cell volume =    854.50594 a.u.^3 (   126.62471 Ang^3 )
     density =      2.62510 g/cm^3

CELL_PARAMETERS (alat= 12.00000000)
   0.397394324  -0.229435720   0.903935421
  -0.000000000   0.458871440   0.903935421
  -0.397394324  -0.229435720   0.903935421

ATOMIC_POSITIONS (crystal)
Ca       0.500000000   0.500000000   0.500000000
Ca      -0.000000000   0.000000000  -0.000000000
C        0.250000000   0.250000000   0.250000000
C        0.750000000   0.750000000   0.750000000
O        0.507031339   0.992968661   0.250000000
O        0.992968661   0.250000000   0.507031339
O        0.250000000   0.507031339   0.992968661
O        0.007031339   0.750000000   0.492968661
O        0.750000000   0.492968661   0.007031339
O        0.492968661   0.007031339   0.750000000



     Writing output data file CCO_k.save/
     NEW-OLD atomic charge density approx. for the potential

     Check: negative core charge=   -0.000003
     extrapolated charge   64.03025, renormalised to   64.00000

     total cpu time spent up to now is     3883.8 secs

     Self-consistent Calculation

     iteration #  1     ecut=    50.00 Ry     beta= 0.70
     CG style diagonalization
     ethr =  1.00E-06,  avg # of iterations =  2.5

     Threshold (ethr) on eigenvalues was too large:
     Diagonalizing with lowered threshold

     CG style diagonalization
     ethr =  7.34E-08,  avg # of iterations =  2.8

     total cpu time spent up to now is     4044.3 secs

     total energy              =    -367.43229816 Ry
     Harris-Foulkes estimate   =    -367.37824756 Ry
     estimated scf accuracy    <       0.00004396 Ry

     iteration #  2     ecut=    50.00 Ry     beta= 0.70
     CG style diagonalization
     ethr =  6.87E-08,  avg # of iterations =  4.9

     total cpu time spent up to now is     4175.1 secs

     total energy              =    -367.43234903 Ry
     Harris-Foulkes estimate   =    -367.43239317 Ry
     estimated scf accuracy    <       0.00011807 Ry

     iteration #  3     ecut=    50.00 Ry     beta= 0.70
     CG style diagonalization
     ethr =  6.87E-08,  avg # of iterations =  3.8

     total cpu time spent up to now is     4274.2 secs

     total energy              =    -367.43235468 Ry
     Harris-Foulkes estimate   =    -367.43235817 Ry
     estimated scf accuracy    <       0.00001266 Ry

     iteration #  4     ecut=    50.00 Ry     beta= 0.70
     CG style diagonalization
     ethr =  1.98E-08,  avg # of iterations =  3.0

     total cpu time spent up to now is     4353.4 secs

     total energy              =    -367.43235352 Ry
     Harris-Foulkes estimate   =    -367.43235516 Ry
     estimated scf accuracy    <       0.00000497 Ry

     iteration #  5     ecut=    50.00 Ry     beta= 0.70
     CG style diagonalization
     ethr =  7.76E-09,  avg # of iterations =  3.3

     total cpu time spent up to now is     4440.6 secs

     total energy              =    -367.43235369 Ry
     Harris-Foulkes estimate   =    -367.43235393 Ry
     estimated scf accuracy    <       0.00000074 Ry

     iteration #  6     ecut=    50.00 Ry     beta= 0.70
     CG style diagonalization
     ethr =  1.15E-09,  avg # of iterations =  3.3

     total cpu time spent up to now is     4526.7 secs

     total energy              =    -367.43235366 Ry
     Harris-Foulkes estimate   =    -367.43235376 Ry
     estimated scf accuracy    <       0.00000020 Ry

     iteration #  7     ecut=    50.00 Ry     beta= 0.70
     CG style diagonalization
     ethr =  3.11E-10,  avg # of iterations =  3.9

     total cpu time spent up to now is     4629.3 secs

     total energy              =    -367.43235371 Ry
     Harris-Foulkes estimate   =    -367.43235371 Ry
     estimated scf accuracy    <          2.9E-09 Ry

     iteration #  8     ecut=    50.00 Ry     beta= 0.70
     CG style diagonalization
     ethr =  4.48E-12,  avg # of iterations =  4.8

     total cpu time spent up to now is     4756.4 secs

     total energy              =    -367.43235372 Ry
     Harris-Foulkes estimate   =    -367.43235372 Ry
     estimated scf accuracy    <          8.0E-10 Ry

     iteration #  9     ecut=    50.00 Ry     beta= 0.70
     CG style diagonalization
     ethr =  1.25E-12,  avg # of iterations =  3.9

     total cpu time spent up to now is     4860.3 secs

     total energy              =    -367.43235372 Ry
     Harris-Foulkes estimate   =    -367.43235372 Ry
     estimated scf accuracy    <          3.9E-10 Ry

     iteration # 10     ecut=    50.00 Ry     beta= 0.70
     CG style diagonalization
     ethr =  6.08E-13,  avg # of iterations =  4.0

     total cpu time spent up to now is     4966.5 secs

     total energy              =    -367.43235372 Ry
     Harris-Foulkes estimate   =    -367.43235372 Ry
     estimated scf accuracy    <          1.1E-10 Ry

     iteration # 11     ecut=    50.00 Ry     beta= 0.70
     CG style diagonalization
     ethr =  1.73E-13,  avg # of iterations =  3.6

     total cpu time spent up to now is     5061.1 secs

     End of self-consistent calculation

          k = 0.0000 0.0000 0.0000 (  7391 PWs)   bands (ev):

   -33.6955 -33.6830 -17.0808 -17.0703 -15.1272 -15.1272 -14.7612 -14.7612
   -14.6676 -14.5588 -13.9044 -13.9044 -13.3721 -13.3721  -3.3165  -3.0437
    -1.6901  -1.5349  -1.5349  -1.2753  -1.2753  -0.4005   2.3544   2.3544
     2.7887   2.7887   2.9598   2.9598   3.5739   3.5739   3.7722   4.1996

          k =-0.2097-0.1211 0.0615 (  7333 PWs)   bands (ev):

   -33.6946 -33.6837 -17.0892 -17.0533 -15.1258 -15.0512 -14.8589 -14.7587
   -14.6941 -14.6562 -13.8482 -13.7192 -13.4755 -13.3927  -3.2114  -3.0544
    -1.5991  -1.4922  -1.4482  -1.3155  -1.2632  -0.5111   2.4029   2.4655
     2.6845   2.7222   2.7967   2.8517   3.4236   3.4493   3.9850   4.2089

          k =-0.4194-0.2421 0.1229 (  7297 PWs)   bands (ev):

   -33.6920 -33.6858 -17.0981 -17.0239 -15.1150 -15.0084 -14.9917 -14.8363
   -14.6696 -14.6521 -13.7308 -13.6143 -13.5544 -13.4587  -3.0263  -3.0242
    -1.5394  -1.4161  -1.2774  -1.2721  -1.2047  -0.7078   2.2854   2.3605
     2.5704   2.5936   2.7204   2.8261   3.1979   3.2317   4.2416   4.2565

          k = 0.6291 0.3632-0.1844 (  7336 PWs)   bands (ev):

   -33.6888 -33.6888 -17.0572 -17.0572 -15.0156 -15.0156 -15.0015 -15.0015
   -14.6478 -14.6478 -13.5893 -13.5893 -13.5730 -13.5730  -2.9640  -2.9640
    -1.5008  -1.5008  -1.2290  -1.2290  -0.9160  -0.9160   2.1581   2.1581
     2.5433   2.5433   2.8405   2.8405   3.1014   3.1014   4.3109   4.3109

          k =-0.2097 0.1211 0.1229 (  7303 PWs)   bands (ev):

   -33.6944 -33.6839 -17.0933 -17.0501 -15.0884 -15.0871 -14.8231 -14.7686
   -14.7087 -14.6826 -13.7845 -13.7579 -13.4471 -13.4315  -3.2023  -3.0717
    -1.5635  -1.4810  -1.4712  -1.3147  -1.2551  -0.5342   2.4040   2.4640
     2.6640   2.6880   2.8235   2.9020   3.3619   3.4857   3.9896   4.1944

          k =-0.4194 0.0000 0.1844 (  7295 PWs)   bands (ev):

   -33.6926 -33.6853 -17.1069 -17.0216 -15.1150 -15.0715 -14.8724 -14.8145
   -14.6879 -14.6800 -13.7322 -13.7039 -13.4812 -13.4588  -3.0607  -3.0539
    -1.5085  -1.4111  -1.3966  -1.2396  -1.2207  -0.6831   2.3319   2.4344
     2.5785   2.5899   2.7128   2.8574   3.1589   3.3468   4.2103   4.2223

          k = 0.6291 0.6053-0.1229 (  7293 PWs)   bands (ev):

   -33.6898 -33.6877 -17.0708 -17.0458 -15.1178 -15.0229 -14.9595 -14.8865
   -14.6643 -14.6537 -13.7389 -13.6181 -13.5409 -13.4491  -2.9669  -2.9603
    -1.4912  -1.4750  -1.3028  -1.2180  -0.9701  -0.8267   2.1652   2.2299
     2.4835   2.5141   2.7317   2.8134   3.1085   3.2093   4.3169   4.3322

          k = 0.4194 0.4843-0.0615 (  7307 PWs)   bands (ev):

   -33.6906 -33.6870 -17.1011 -17.0115 -15.1506 -15.0190 -15.0058 -14.8052
   -14.6882 -14.6223 -13.7880 -13.6134 -13.5402 -13.4229  -3.0085  -2.9151
    -1.5578  -1.3885  -1.2859  -1.2175  -1.0568  -0.7911   2.1133   2.3133
     2.4350   2.5373   2.6912   2.8379   3.1499   3.2044   4.2689   4.3827

          k = 0.2097 0.3632 0.0000 (  7327 PWs)   bands (ev):

   -33.6931 -33.6848 -17.1122 -17.0136 -15.1126 -15.0818 -14.8916 -14.7852
   -14.7069 -14.6665 -13.7260 -13.7202 -13.4682 -13.4612  -3.0557  -3.0478
    -1.5429  -1.4011  -1.3501  -1.3069  -1.2339  -0.6484   2.3389   2.4954
     2.5243   2.6397   2.6421   2.8282   3.2285   3.3459   4.2154   4.2268

          k =-0.4194 0.2421 0.2458 (  7275 PWs)   bands (ev):

   -33.6920 -33.6858 -17.1376 -16.9837 -15.1538 -15.1273 -14.7982 -14.7403
   -14.7181 -14.6895 -13.7958 -13.7369 -13.4561 -13.4158  -3.1158  -2.9419
    -1.5397  -1.3916  -1.3472  -1.2149  -1.1222  -0.7662   2.1468   2.3785
     2.4974   2.7074   2.7144   2.9617   2.9904   3.3490   4.1604   4.3265

          k = 0.6291 0.8475-0.0615 (  7294 PWs)   bands (ev):

   -33.6906 -33.6870 -17.1253 -16.9895 -15.1876 -15.0975 -14.8445 -14.7720
   -14.7005 -14.6426 -13.8676 -13.6856 -13.4766 -13.3789  -3.0611  -2.8648
    -1.5312  -1.4255  -1.3161  -1.1996  -0.9673  -0.8167   2.0232   2.2641
     2.4797   2.6312   2.6923   2.7414   3.1167   3.2703   4.2165   4.4279

          k = 0.4194 0.7264 0.0000 (  7290 PWs)   bands (ev):

   -33.6887 -33.6887 -17.0576 -17.0574 -15.1150 -15.0801 -14.9147 -14.8254
   -14.7157 -14.6576 -13.7310 -13.7242 -13.4501 -13.4469  -2.9281  -2.9276
    -1.5225  -1.4129  -1.3545  -1.1994  -0.8866  -0.8408   2.1324   2.1440
     2.4608   2.4783   2.6609   2.6977   3.1825   3.2261   4.3690   4.3725

          k = 0.6291-0.3632-0.3688 (  7216 PWs)   bands (ev):

   -33.6908 -33.6867 -17.1589 -16.9475 -15.2143 -15.2115 -14.7438 -14.7168
   -14.6943 -14.5678 -13.9438 -13.8348 -13.3873 -13.3470  -3.1343  -2.7871
    -1.5946  -1.3791  -1.2527  -1.1867  -0.9655  -0.8620   1.9163   2.2358
     2.5103   2.6898   2.7323   2.7442   3.1334   3.2563   4.1248   4.4860

          k = 0.0000 0.0000 0.1844 (  7333 PWs)   bands (ev):

   -33.6947 -33.6838 -17.0807 -17.0717 -15.1098 -15.1098 -14.7987 -14.7987
   -14.6593 -14.5652 -13.8559 -13.8559 -13.4008 -13.4008  -3.3101  -3.0807
    -1.5897  -1.5175  -1.5175  -1.2928  -1.2928  -0.4784   2.3840   2.3840
     2.7550   2.7550   3.0011   3.0011   3.5261   3.5261   3.7970   4.1633

          k =-0.2097-0.1211 0.2458 (  7327 PWs)   bands (ev):

   -33.6933 -33.6849 -17.0818 -17.0627 -15.1280 -15.0025 -14.9520 -14.7432
   -14.6984 -14.6225 -13.8379 -13.6565 -13.5361 -13.4012  -3.2172  -3.0813
    -1.5207  -1.4779  -1.3766  -1.3074  -1.3016  -0.6077   2.4157   2.4863
     2.6586   2.6907   2.8076   2.9614   3.3339   3.4013   3.9955   4.1770

          k = 0.8388 0.4843-0.0615 (  7307 PWs)   bands (ev):

   -33.6907 -33.6871 -17.0648 -17.0618 -15.1142 -15.0292 -14.9627 -14.8291
   -14.6865 -14.6361 -13.7460 -13.6017 -13.5825 -13.4388  -3.0832  -2.9804
    -1.4773  -1.4663  -1.3271  -1.2632  -1.0755  -0.7718   2.2689   2.3600
     2.5398   2.6048   2.7319   2.9218   3.0973   3.2022   4.2084   4.2779

          k = 0.6291 0.3632 0.0000 (  7293 PWs)   bands (ev):

   -33.6898 -33.6878 -17.1089 -17.0036 -15.1194 -15.1141 -14.8888 -14.8730
   -14.6872 -14.6081 -13.7416 -13.6886 -13.4746 -13.4607  -3.0499  -2.8766
    -1.5742  -1.3830  -1.2966  -1.1881  -0.9737  -0.8633   2.0405   2.2557
     2.4513   2.6456   2.7293   2.9841   2.9943   3.1672   4.2257   4.3945

          k = 0.4194 0.2421 0.0615 (  7295 PWs)   bands (ev):

   -33.6925 -33.6853 -17.1256 -16.9937 -15.1415 -15.0840 -14.9015 -14.7673
   -14.7092 -14.6544 -13.7861 -13.6365 -13.5292 -13.4244  -3.0737  -2.9738
    -1.5521  -1.3913  -1.3147  -1.2441  -1.2057  -0.7100   2.1976   2.4259
     2.5056   2.6426   2.6687   2.9217   3.1104   3.3230   4.1985   4.2996

          k =-0.2097 0.1211 0.3073 (  7295 PWs)   bands (ev):

   -33.6928 -33.6855 -17.0926 -17.0537 -15.1056 -15.0172 -14.9125 -14.7901
   -14.6854 -14.6597 -13.7597 -13.6801 -13.5110 -13.4552  -3.1905  -3.1234
    -1.4846  -1.4469  -1.4072  -1.2826  -1.2814  -0.6715   2.4272   2.4807
     2.6120   2.6594   2.8814   3.0223   3.2346   3.4294   4.0145   4.1409

          k = 0.8388 0.7264 0.0000 (  7296 PWs)   bands (ev):

   -33.6910 -33.6869 -17.0915 -17.0424 -15.1078 -15.0640 -14.8649 -14.8045
   -14.7245 -14.6695 -13.7241 -13.6921 -13.4927 -13.4678  -3.0701  -3.0663
    -1.4515  -1.4293  -1.3995  -1.2645  -1.0848  -0.7829   2.3234   2.3674
     2.5849   2.6337   2.7469   2.9227   3.0731   3.2917   4.2024   4.2119

          k = 0.6291 0.6053 0.0615 (  7282 PWs)   bands (ev):

   -33.6888 -33.6888 -17.0829 -17.0369 -15.1233 -15.0553 -14.9321 -14.8065
   -14.6995 -14.6742 -13.7628 -13.6536 -13.5148 -13.4267  -3.0170  -2.9130
    -1.5306  -1.3855  -1.3584  -1.2220  -0.8891  -0.8712   2.1140   2.2090
     2.4901   2.5920   2.6939   2.7969   3.1221   3.1899   4.2785   4.3679

          k = 0.4194 0.4843 0.1229 (  7296 PWs)   bands (ev):

   -33.6909 -33.6867 -17.1210 -16.9907 -15.1887 -15.0639 -14.9408 -14.7394
   -14.7111 -14.6149 -13.8651 -13.6118 -13.5410 -13.3798  -3.0453  -2.8777
    -1.5637  -1.3776  -1.2763  -1.2366  -1.0388  -0.7909   2.0526   2.3261
     2.4164   2.5922   2.6711   2.8314   3.1233   3.2508   4.2310   4.4183

          k = 0.8388-0.4843-0.3073 (  7294 PWs)   bands (ev):

   -33.6907 -33.6871 -17.1301 -16.9957 -15.1830 -15.0805 -14.8161 -14.7567
   -14.7310 -14.6414 -13.8063 -13.7509 -13.4475 -13.4138  -3.1358  -2.9351
    -1.5426  -1.3838  -1.3014  -1.2513  -1.0161  -0.8505   2.1451   2.3277
     2.5697   2.7119   2.7433   2.8504   3.0464   3.2903   4.1481   4.3288

          k = 0.6291-0.6053-0.2458 (  7272 PWs)   bands (ev):

   -33.6898 -33.6877 -17.1118 -17.0070 -15.1417 -15.1163 -14.8365 -14.7454
   -14.7166 -14.7069 -13.7946 -13.7286 -13.4473 -13.4156  -3.0513  -2.8782
    -1.5318  -1.4239  -1.2866  -1.2455  -0.9115  -0.8436   2.0446   2.2232
     2.5300   2.6327   2.6715   2.7277   3.1381   3.2218   4.2351   4.4090

          k = 0.4194-0.7264-0.1844 (  7282 PWs)   bands (ev):

   -33.6887 -33.6887 -17.0575 -17.0575 -15.0998 -15.0998 -14.8735 -14.8735
   -14.6810 -14.6810 -13.7276 -13.7276 -13.4485 -13.4485  -2.9279  -2.9279
    -1.4862  -1.4862  -1.2606  -1.2606  -0.8615  -0.8615   2.1381   2.1381
     2.4698   2.4698   2.6784   2.6784   3.2052   3.2052   4.3707   4.3707

          k = 0.6291-0.3632-0.1844 (  7294 PWs)   bands (ev):

   -33.6906 -33.6870 -17.1456 -16.9628 -15.1898 -15.1862 -14.7816 -14.7501
   -14.7145 -14.5789 -13.8813 -13.7911 -13.4098 -13.3763  -3.1118  -2.8113
    -1.5960  -1.3595  -1.2476  -1.2212  -0.9764  -0.8528   1.9500   2.2607
     2.4535   2.7003   2.7195   2.8245   3.1017   3.2236   4.1544   4.4604

          k = 0.0000 0.0000 0.3688 (  7297 PWs)   bands (ev):

   -33.6924 -33.6861 -17.0801 -17.0749 -15.0591 -15.0591 -14.8853 -14.8853
   -14.6376 -14.5832 -13.7392 -13.7392 -13.4822 -13.4822  -3.2862  -3.1605
    -1.4699  -1.4699  -1.3404  -1.3404  -1.3328  -0.6964   2.4638   2.4638
     2.6751   2.6751   3.1039   3.1039   3.4020   3.4020   3.8658   4.0728

          k = 1.0485 0.6053 0.0615 (  7307 PWs)   bands (ev):

   -33.6909 -33.6873 -17.0752 -17.0722 -15.1011 -15.0175 -14.9484 -14.8082
   -14.6703 -14.6158 -13.7652 -13.6083 -13.5894 -13.4511  -3.2090  -3.1281
    -1.4512  -1.4205  -1.3667  -1.3533  -1.1472  -0.8093   2.4459   2.5197
     2.5984   2.6216   2.9226   3.1184   3.1761   3.3069   4.0247   4.1192

          k = 0.8388 0.4843 0.1229 (  7290 PWs)   bands (ev):

   -33.6889 -33.6889 -17.1038 -17.0246 -15.1676 -15.0185 -14.9310 -14.7644
   -14.7194 -14.6230 -13.8067 -13.6700 -13.5154 -13.4087  -3.1243  -2.9495
    -1.5263  -1.3623  -1.3529  -1.2636  -0.9526  -0.8877   2.1891   2.3426
     2.5866   2.6644   2.6838   2.9457   3.0784   3.1846   4.1673   4.3089

          k = 1.0485-0.6053-0.2458 (  7293 PWs)   bands (ev):

   -33.6902 -33.6881 -17.0863 -17.0621 -15.0984 -14.9968 -14.9368 -14.8493
   -14.6581 -14.6322 -13.7297 -13.6061 -13.5821 -13.4848  -3.1767  -3.1676
    -1.4498  -1.4038  -1.3810  -1.3400  -1.0693  -0.8959   2.4820   2.4825
     2.5908   2.6078   2.9934   3.0908   3.1562   3.3010   4.0602   4.0763

          k = 0.8388-0.7264-0.1844 (  7282 PWs)   bands (ev):

   -33.6890 -33.6890 -17.0683 -17.0683 -15.0842 -15.0842 -14.8333 -14.8333
   -14.6988 -14.6988 -13.7036 -13.7036 -13.4848 -13.4848  -3.0736  -3.0736
    -1.4443  -1.4443  -1.3217  -1.3217  -0.9286  -0.9286   2.3308   2.3308
     2.6159   2.6159   2.8346   2.8346   3.1738   3.1738   4.2028   4.2028

          k = 0.0000 0.0000-0.5531 (  7336 PWs)   bands (ev):

   -33.6892 -33.6892 -17.0781 -17.0781 -14.9803 -14.9803 -14.9803 -14.9803
   -14.6095 -14.6095 -13.6027 -13.6027 -13.6027 -13.6027  -3.2363  -3.2363
    -1.4052  -1.4052  -1.4052  -1.4052  -1.0061  -1.0061   2.5705   2.5705
     2.5705   2.5705   3.2467   3.2467   3.2467   3.2467   3.9642   3.9642

     highest occupied level (ev):     4.4860

!    total energy              =    -367.43235372 Ry
     Harris-Foulkes estimate   =    -367.43235372 Ry
     estimated scf accuracy    <          5.7E-12 Ry

     The total energy is the sum of the following terms:

     one-electron contribution =    -148.06499313 Ry
     hartree contribution      =     103.41747871 Ry
     xc contribution           =     -75.26703969 Ry
     ewald contribution        =    -247.51779961 Ry

     convergence has been achieved in  11 iterations

     Forces acting on atoms (cartesian axes, Ry/au):

     atom    1 type  1   force =     0.00000000    0.00000000   -0.00000000
[...]
     Harris-Foulkes estimate   =    -367.90341598 Ry
     estimated scf accuracy    <       1.68776227 Ry

     iteration #  2     ecut=    50.00 Ry     beta= 0.70
     CG style diagonalization
     ethr =  2.64E-03,  avg # of iterations =  4.3

     total cpu time spent up to now is     7132.4 secs

     total energy              =    -367.11750996 Ry
     Harris-Foulkes estimate   =    -367.87749956 Ry
     estimated scf accuracy    <       1.55145305 Ry

     iteration #  3     ecut=    50.00 Ry     beta= 0.70
     CG style diagonalization
     ethr =  2.42E-03,  avg # of iterations =  3.8

     total cpu time spent up to now is     7221.6 secs

     total energy              =    -367.41885430 Ry
     Harris-Foulkes estimate   =    -367.42139978 Ry
     estimated scf accuracy    <       0.01234958 Ry

     iteration #  4     ecut=    50.00 Ry     beta= 0.70
     CG style diagonalization
     ethr =  1.93E-05,  avg # of iterations =  4.3

     total cpu time spent up to now is     7322.7 secs

     total energy              =    -367.42994228 Ry
     Harris-Foulkes estimate   =    -367.43090820 Ry
     estimated scf accuracy    <       0.00258248 Ry

     iteration #  5     ecut=    50.00 Ry     beta= 0.70
     CG style diagonalization
     ethr =  4.04E-06,  avg # of iterations =  3.5

     total cpu time spent up to now is     7406.6 secs

     total energy              =    -367.43033140 Ry
     Harris-Foulkes estimate   =    -367.43034753 Ry
     estimated scf accuracy    <       0.00011361 Ry

     iteration #  6     ecut=    50.00 Ry     beta= 0.70
     CG style diagonalization
     ethr =  1.78E-07,  avg # of iterations =  4.0

     total cpu time spent up to now is     7501.7 secs

     total energy              =    -367.43036290 Ry
     Harris-Foulkes estimate   =    -367.43036603 Ry
     estimated scf accuracy    <       0.00000695 Ry

     iteration #  7     ecut=    50.00 Ry     beta= 0.70
     CG style diagonalization
     ethr =  1.09E-08,  avg # of iterations =  4.3

     total cpu time spent up to now is     7603.2 secs

     total energy              =    -367.43036629 Ry
     Harris-Foulkes estimate   =    -367.43036762 Ry
     estimated scf accuracy    <       0.00000320 Ry

     iteration #  8     ecut=    50.00 Ry     beta= 0.70
     CG style diagonalization
     ethr =  5.00E-09,  avg # of iterations =  3.6

     total cpu time spent up to now is     7689.0 secs

     total energy              =    -367.43036673 Ry
     Harris-Foulkes estimate   =    -367.43036680 Ry
     estimated scf accuracy    <       0.00000013 Ry

     iteration #  9     ecut=    50.00 Ry     beta= 0.70
     CG style diagonalization
     ethr =  2.05E-10,  avg # of iterations =  4.0

     total cpu time spent up to now is     7783.1 secs

     total energy              =    -367.43036677 Ry
     Harris-Foulkes estimate   =    -367.43036678 Ry
     estimated scf accuracy    <          8.5E-09 Ry

     iteration # 10     ecut=    50.00 Ry     beta= 0.70
     CG style diagonalization
     ethr =  1.33E-11,  avg # of iterations =  4.2

     total cpu time spent up to now is     7882.4 secs

     total energy              =    -367.43036677 Ry
     Harris-Foulkes estimate   =    -367.43036678 Ry
     estimated scf accuracy    <          9.8E-09 Ry

     iteration # 11     ecut=    50.00 Ry     beta= 0.70
     CG style diagonalization
     ethr =  1.33E-11,  avg # of iterations =  3.7

     total cpu time spent up to now is     7969.0 secs

     total energy              =    -367.43036678 Ry
     Harris-Foulkes estimate   =    -367.43036678 Ry
     estimated scf accuracy    <          4.1E-10 Ry

     iteration # 12     ecut=    50.00 Ry     beta= 0.70
     CG style diagonalization
     ethr =  6.38E-13,  avg # of iterations =  3.9

     total cpu time spent up to now is     8059.8 secs

     End of self-consistent calculation

          k = 0.0000 0.0000 0.0000 (  5161 PWs)   bands (ev):

   -33.6935 -33.6809 -17.0826 -17.0724 -15.1257 -15.1257 -14.7591 -14.7591
   -14.6657 -14.5573 -13.9051 -13.9051 -13.3721 -13.3721  -3.3145  -3.0413
    -1.6906  -1.5338  -1.5338  -1.2741  -1.2741  -0.4011   2.3559   2.3559
     2.7901   2.7901   2.9614   2.9614   3.5755   3.5755   3.7748   4.2022

          k =-0.2097-0.1211 0.0615 (  5108 PWs)   bands (ev):

   -33.6925 -33.6816 -17.0913 -17.0551 -15.1243 -15.0497 -14.8573 -14.7568
   -14.6922 -14.6546 -13.8487 -13.7194 -13.4756 -13.3927  -3.2093  -3.0520
    -1.5994  -1.4910  -1.4471  -1.3143  -1.2619  -0.5116   2.4044   2.4670
     2.6859   2.7238   2.7981   2.8533   3.4253   3.4509   3.9876   4.2115

          k =-0.4194-0.2422 0.1229 (  5098 PWs)   bands (ev):

   -33.6900 -33.6837 -17.1001 -17.0258 -15.1136 -15.0069 -14.9901 -14.8348
   -14.6678 -14.6501 -13.7311 -13.6144 -13.5545 -13.4587  -3.0240  -3.0219
    -1.5388  -1.4150  -1.2762  -1.2708  -1.2045  -0.7082   2.2869   2.3621
     2.5720   2.5951   2.7218   2.8274   3.1995   3.2332   4.2442   4.2591

          k = 0.6291 0.3632-0.1844 (  5096 PWs)   bands (ev):

   -33.6867 -33.6867 -17.0592 -17.0592 -15.0140 -15.0140 -15.0001 -15.0001
   -14.6459 -14.6459 -13.5894 -13.5894 -13.5731 -13.5731  -2.9617  -2.9617
    -1.4999  -1.4999  -1.2278  -1.2278  -0.9161  -0.9161   2.1595   2.1595
     2.5449   2.5449   2.8419   2.8419   3.1030   3.1030   4.3135   4.3135

          k =-0.2097 0.1211 0.1229 (  5107 PWs)   bands (ev):

   -33.6923 -33.6819 -17.0954 -17.0520 -15.0869 -15.0856 -14.8214 -14.7667
   -14.7073 -14.6808 -13.7848 -13.7582 -13.4471 -13.4316  -3.2002  -3.0694
    -1.5639  -1.4798  -1.4700  -1.3135  -1.2538  -0.5348   2.4055   2.4655
     2.6655   2.6894   2.8252   2.9035   3.3635   3.4873   3.9922   4.1970

          k =-0.4194-0.0000 0.1844 (  5107 PWs)   bands (ev):

   -33.6905 -33.6833 -17.1088 -17.0236 -15.1136 -15.0701 -14.8707 -14.8130
   -14.6859 -14.6781 -13.7324 -13.7042 -13.4812 -13.4588  -3.0584  -3.0517
    -1.5078  -1.4103  -1.3954  -1.2383  -1.2201  -0.6835   2.3334   2.4360
     2.5800   2.5914   2.7142   2.8587   3.1604   3.3483   4.2129   4.2249

          k = 0.6291 0.6054-0.1229 (  5096 PWs)   bands (ev):

   -33.6878 -33.6857 -17.0728 -17.0478 -15.1165 -15.0215 -14.9581 -14.8848
   -14.6624 -14.6518 -13.7391 -13.6182 -13.5410 -13.4491  -2.9646  -2.9580
    -1.4903  -1.4740  -1.3018  -1.2168  -0.9701  -0.8269   2.1666   2.2314
     2.4850   2.5157   2.7331   2.8147   3.1100   3.2108   4.3196   4.3348

          k = 0.4194 0.4843-0.0615 (  5100 PWs)   bands (ev):

   -33.6885 -33.6849 -17.1030 -17.0135 -15.1493 -15.0175 -15.0043 -14.8036
   -14.6862 -14.6204 -13.7884 -13.6135 -13.5403 -13.4228  -3.0062  -2.9128
    -1.5569  -1.3875  -1.2847  -1.2162  -1.0569  -0.7913   2.1147   2.3148
     2.4366   2.5389   2.6926   2.8394   3.1514   3.2059   4.2716   4.3853

          k = 0.2097 0.3632 0.0000 (  5097 PWs)   bands (ev):

   -33.6911 -33.6827 -17.1141 -17.0156 -15.1112 -15.0803 -14.8900 -14.7837
   -14.7049 -14.6645 -13.7263 -13.7204 -13.4682 -13.4612  -3.0534  -3.0456
    -1.5424  -1.4002  -1.3489  -1.3064  -1.2326  -0.6488   2.3405   2.4970
     2.5259   2.6411   2.6437   2.8295   3.2301   3.3475   4.2181   4.2294

          k =-0.4194 0.2422 0.2459 (  5100 PWs)   bands (ev):

   -33.6900 -33.6837 -17.1394 -16.9858 -15.1524 -15.1261 -14.7965 -14.7382
   -14.7164 -14.6876 -13.7961 -13.7373 -13.4561 -13.4158  -3.1135  -2.9396
    -1.5385  -1.3905  -1.3470  -1.2137  -1.1216  -0.7666   2.1483   2.3800
     2.4989   2.7089   2.7160   2.9633   2.9918   3.3505   4.1630   4.3291

          k = 0.6291 0.8475-0.0615 (  5110 PWs)   bands (ev):

   -33.6885 -33.6849 -17.1272 -16.9916 -15.1863 -15.0962 -14.8428 -14.7701
   -14.6986 -14.6407 -13.8680 -13.6858 -13.4766 -13.3788  -3.0589  -2.8625
    -1.5300  -1.4246  -1.3156  -1.1983  -0.9671  -0.8169   2.0247   2.2656
     2.4812   2.6328   2.6937   2.7428   3.1181   3.2717   4.2191   4.4306

          k = 0.4194 0.7265 0.0000 (  5077 PWs)   bands (ev):

   -33.6867 -33.6867 -17.0596 -17.0593 -15.1137 -15.0788 -14.9130 -14.8239
   -14.7137 -14.6557 -13.7312 -13.7244 -13.4501 -13.4469  -2.9258  -2.9253
    -1.5216  -1.4117  -1.3538  -1.1981  -0.8868  -0.8408   2.1339   2.1455
     2.4623   2.4799   2.6623   2.6991   3.1840   3.2276   4.3716   4.3752

          k = 0.6291-0.3632-0.3688 (  5104 PWs)   bands (ev):

   -33.6888 -33.6847 -17.1607 -16.9496 -15.2130 -15.2102 -14.7416 -14.7148
   -14.6924 -14.5660 -13.9444 -13.8354 -13.3872 -13.3470  -3.1321  -2.7847
    -1.5935  -1.3781  -1.2523  -1.1854  -0.9651  -0.8623   1.9177   2.2373
     2.5118   2.6914   2.7337   2.7458   3.1347   3.2577   4.1273   4.4887

          k = 0.0000 0.0000 0.1844 (  5119 PWs)   bands (ev):

   -33.6926 -33.6818 -17.0826 -17.0738 -15.1083 -15.1083 -14.7967 -14.7967
   -14.6575 -14.5636 -13.8564 -13.8564 -13.4008 -13.4008  -3.3081  -3.0784
    -1.5901  -1.5163  -1.5163  -1.2916  -1.2916  -0.4789   2.3854   2.3854
     2.7564   2.7564   3.0027   3.0027   3.5277   3.5277   3.7997   4.1660

          k =-0.2097-0.1211 0.2459 (  5119 PWs)   bands (ev):

   -33.6913 -33.6829 -17.0838 -17.0646 -15.1265 -15.0009 -14.9504 -14.7411
   -14.6967 -14.6209 -13.8384 -13.6566 -13.5362 -13.4012  -3.2151  -3.0791
    -1.5205  -1.4768  -1.3757  -1.3064  -1.3004  -0.6082   2.4172   2.4877
     2.6600   2.6922   2.8090   2.9630   3.3354   3.4029   3.9981   4.1796

          k = 0.8388 0.4843-0.0615 (  5115 PWs)   bands (ev):

   -33.6887 -33.6850 -17.0667 -17.0638 -15.1128 -15.0278 -14.9611 -14.8275
   -14.6844 -14.6343 -13.7464 -13.6019 -13.5826 -13.4388  -3.0810  -2.9781
    -1.4762  -1.4657  -1.3260  -1.2619  -1.0753  -0.7720   2.2704   2.3615
     2.5413   2.6064   2.7332   2.9231   3.0988   3.2038   4.2109   4.2805

          k = 0.6291 0.3632 0.0000 (  5112 PWs)   bands (ev):

   -33.6878 -33.6857 -17.1108 -17.0056 -15.1179 -15.1128 -14.8870 -14.8714
   -14.6852 -14.6063 -13.7418 -13.6888 -13.4745 -13.4607  -3.0476  -2.8742
    -1.5732  -1.3821  -1.2955  -1.1870  -0.9738  -0.8634   2.0419   2.2572
     2.4528   2.6472   2.7307   2.9856   2.9957   3.1687   4.2283   4.3971

          k = 0.4194 0.2422 0.0615 (  5084 PWs)   bands (ev):

   -33.6905 -33.6832 -17.1275 -16.9957 -15.1402 -15.0825 -14.8999 -14.7657
   -14.7073 -14.6525 -13.7864 -13.6367 -13.5293 -13.4244  -3.0713  -2.9715
    -1.5512  -1.3901  -1.3144  -1.2428  -1.2049  -0.7104   2.1991   2.4275
     2.5071   2.6440   2.6703   2.9230   3.1120   3.3245   4.2011   4.3023

          k =-0.2097 0.1211 0.3073 (  5100 PWs)   bands (ev):

   -33.6907 -33.6835 -17.0946 -17.0556 -15.1041 -15.0156 -14.9109 -14.7882
   -14.6838 -14.6579 -13.7601 -13.6803 -13.5111 -13.4552  -3.1884  -3.1211
    -1.4838  -1.4458  -1.4066  -1.2813  -1.2808  -0.6719   2.4286   2.4822
     2.6135   2.6609   2.8829   3.0238   3.2362   3.4309   4.0171   4.1435

          k = 0.8388 0.7265 0.0000 (  5096 PWs)   bands (ev):

   -33.6890 -33.6848 -17.0935 -17.0444 -15.1064 -15.0626 -14.8631 -14.8031
   -14.7224 -14.6677 -13.7243 -13.6923 -13.4926 -13.4678  -3.0679  -3.0641
    -1.4503  -1.4283  -1.3988  -1.2633  -1.0846  -0.7832   2.3249   2.3690
     2.5864   2.6352   2.7484   2.9241   3.0747   3.2932   4.2050   4.2145

          k = 0.6291 0.6054 0.0615 (  5099 PWs)   bands (ev):

   -33.6867 -33.6867 -17.0848 -17.0389 -15.1219 -15.0539 -14.9306 -14.8048
   -14.6974 -14.6723 -13.7630 -13.6537 -13.5149 -13.4267  -3.0147  -2.9107
    -1.5296  -1.3843  -1.3577  -1.2209  -0.8890  -0.8713   2.1154   2.2105
     2.4916   2.5935   2.6954   2.7983   3.1235   3.1915   4.2811   4.3705

          k = 0.4194 0.4843 0.1229 (  5101 PWs)   bands (ev):

   -33.6888 -33.6847 -17.1229 -16.9927 -15.1874 -15.0625 -14.9392 -14.7375
   -14.7091 -14.6130 -13.8656 -13.6120 -13.5410 -13.3797  -3.0430  -2.8754
    -1.5628  -1.3766  -1.2752  -1.2356  -1.0386  -0.7911   2.0540   2.3277
     2.4179   2.5938   2.6725   2.8329   3.1247   3.2523   4.2336   4.4209

          k = 0.8388-0.4843-0.3073 (  5115 PWs)   bands (ev):

   -33.6886 -33.6851 -17.1320 -16.9978 -15.1816 -15.0792 -14.8145 -14.7547
   -14.7290 -14.6397 -13.8068 -13.7511 -13.4476 -13.4137  -3.1336  -2.9328
    -1.5414  -1.3827  -1.3007  -1.2502  -1.0159  -0.8507   2.1466   2.3292
     2.5711   2.7134   2.7446   2.8519   3.0478   3.2917   4.1506   4.3314

          k = 0.6291-0.6054-0.2459 (  5107 PWs)   bands (ev):

   -33.6878 -33.6857 -17.1137 -17.0091 -15.1404 -15.1150 -14.8348 -14.7438
   -14.7146 -14.7049 -13.7949 -13.7289 -13.4472 -13.4156  -3.0490  -2.8759
    -1.5307  -1.4229  -1.2859  -1.2444  -0.9114  -0.8436   2.0461   2.2247
     2.5315   2.6342   2.6729   2.7292   3.1396   3.2232   4.2376   4.4116

          k = 0.4194-0.7265-0.1844 (  5108 PWs)   bands (ev):

   -33.6867 -33.6867 -17.0595 -17.0595 -15.0985 -15.0985 -14.8719 -14.8719
   -14.6791 -14.6791 -13.7278 -13.7278 -13.4485 -13.4485  -2.9256  -2.9256
    -1.4853  -1.4853  -1.2596  -1.2596  -0.8615  -0.8615   2.1396   2.1396
     2.4713   2.4713   2.6798   2.6798   3.2066   3.2066   4.3733   4.3733

          k = 0.6291-0.3632-0.1844 (  5100 PWs)   bands (ev):

   -33.6885 -33.6849 -17.1475 -16.9649 -15.1884 -15.1850 -14.7796 -14.7483
   -14.7124 -14.5771 -13.8817 -13.7916 -13.4097 -13.3763  -3.1096  -2.8089
    -1.5950  -1.3586  -1.2464  -1.2205  -0.9762  -0.8529   1.9514   2.2622
     2.4550   2.7017   2.7211   2.8260   3.1031   3.2251   4.1569   4.4630

          k = 0.0000 0.0000 0.3688 (  5106 PWs)   bands (ev):

   -33.6903 -33.6841 -17.0820 -17.0769 -15.0576 -15.0576 -14.8835 -14.8835
   -14.6358 -14.5816 -13.7395 -13.7395 -13.4822 -13.4822  -3.2841  -3.1584
    -1.4687  -1.4687  -1.3392  -1.3392  -1.3332  -0.6968   2.4653   2.4653
     2.6766   2.6766   3.1055   3.1055   3.4036   3.4036   3.8685   4.0754

          k = 1.0485 0.6054 0.0615 (  5102 PWs)   bands (ev):

   -33.6889 -33.6853 -17.0771 -17.0742 -15.0997 -15.0160 -14.9467 -14.8062
   -14.6685 -14.6142 -13.7656 -13.6085 -13.5894 -13.4511  -3.2069  -3.1259
    -1.4499  -1.4196  -1.3655  -1.3521  -1.1472  -0.8096   2.4474   2.5212
     2.5998   2.6232   2.9241   3.1198   3.1776   3.3085   4.0273   4.1218

          k = 0.8388 0.4843 0.1229 (  5107 PWs)   bands (ev):

   -33.6869 -33.6868 -17.1057 -17.0266 -15.1662 -15.0171 -14.9295 -14.7625
   -14.7174 -14.6213 -13.8072 -13.6701 -13.5155 -13.4087  -3.1222  -2.9472
    -1.5252  -1.3612  -1.3520  -1.2625  -0.9525  -0.8878   2.1906   2.3441
     2.5881   2.6660   2.6852   2.9472   3.0798   3.1861   4.1699   4.3115

          k = 1.0485-0.6054-0.2459 (  5090 PWs)   bands (ev):

   -33.6881 -33.6860 -17.0882 -17.0640 -15.0970 -14.9952 -14.9352 -14.8475
   -14.6564 -14.6304 -13.7301 -13.6063 -13.5822 -13.4847  -3.1745  -3.1655
    -1.4487  -1.4026  -1.3799  -1.3388  -1.0695  -0.8962   2.4835   2.4841
     2.5923   2.6093   2.9949   3.0923   3.1577   3.3025   4.0628   4.0789

          k = 0.8388-0.7265-0.1844 (  5108 PWs)   bands (ev):

   -33.6869 -33.6869 -17.0703 -17.0703 -15.0828 -15.0828 -14.8316 -14.8316
   -14.6969 -14.6969 -13.7038 -13.7038 -13.4848 -13.4848  -3.0714  -3.0714
    -1.4432  -1.4432  -1.3208  -1.3208  -0.9287  -0.9287   2.3323   2.3323
     2.6173   2.6173   2.8360   2.8360   3.1753   3.1753   4.2053   4.2053

          k = 0.0000 0.0000-0.5532 (  5076 PWs)   bands (ev):

   -33.6872 -33.6872 -17.0801 -17.0801 -14.9787 -14.9787 -14.9787 -14.9787
   -14.6078 -14.6078 -13.6028 -13.6028 -13.6028 -13.6028  -3.2342  -3.2342
    -1.4039  -1.4039  -1.4039  -1.4039  -1.0064  -1.0064   2.5719   2.5719
     2.5719   2.5719   3.2482   3.2482   3.2482   3.2482   3.9668   3.9668

     highest occupied level (ev):     4.4887

!    total energy              =    -367.43036678 Ry
     Harris-Foulkes estimate   =    -367.43036678 Ry
     estimated scf accuracy    <          3.5E-11 Ry

     The total energy is the sum of the following terms:

     one-electron contribution =    -148.06082178 Ry
     hartree contribution      =     103.41876330 Ry
     xc contribution           =     -75.26840280 Ry
     ewald contribution        =    -247.51990549 Ry

     convergence has been achieved in  12 iterations

     Forces acting on atoms (cartesian axes, Ry/au):

     atom    1 type  1   force =     0.00000000    0.00000000    0.00000000
     atom    2 type  1   force =     0.00000000    0.00000000    0.00000000
     atom    3 type  2   force =     0.00000000    0.00000000    0.00000000
     atom    4 type  2   force =     0.00000000    0.00000000    0.00000000
     atom    5 type  3   force =    -0.00011706    0.00020276    0.00000000
     atom    6 type  3   force =     0.00023413    0.00000000   -0.00000000
     atom    7 type  3   force =    -0.00011706   -0.00020276   -0.00000000
     atom    8 type  3   force =    -0.00023413   -0.00000000    0.00000000
     atom    9 type  3   force =     0.00011706    0.00020276    0.00000000
     atom   10 type  3   force =     0.00011706   -0.00020276   -0.00000000

     Total force =     0.000573     Total SCF correction =     0.000011


     Computing stress (Cartesian axis) and pressure

          total   stress  (Ry/bohr**3)                   (kbar)     P=   -0.90
  -0.00000917   0.00000000  -0.00000000         -1.35      0.00     -0.00
  -0.00000000  -0.00000917  -0.00000000         -0.00     -1.35     -0.00
   0.00000000  -0.00000000  -0.00000007          0.00     -0.00     -0.01


     Writing output data file CCO_k.save/
 
     init_run     :     70.76s CPU     71.84s WALL (       2 calls)
     electrons    :   7655.24s CPU   7761.62s WALL (       7 calls)
     update_pot   :     27.60s CPU     27.65s WALL (       5 calls)
     forces       :     47.45s CPU     48.13s WALL (       7 calls)
     stress       :    162.94s CPU    164.42s WALL (       7 calls)

     Called by init_run:
     wfcinit      :     56.30s CPU     57.00s WALL (       2 calls)
     potinit      :      1.89s CPU      1.93s WALL (       2 calls)
     hinit0       :     11.77s CPU     11.80s WALL (       2 calls)

     Called by electrons:
     c_bands      :   7013.93s CPU   7105.89s WALL (      69 calls)
     sum_band     :    597.21s CPU    606.44s WALL (      69 calls)
     v_of_rho     :     22.67s CPU     23.02s WALL (      72 calls)
     newd         :     24.68s CPU     28.99s WALL (      72 calls)
     mix_rho      :      1.11s CPU      1.40s WALL (      69 calls)

     Called by c_bands:
     init_us_2    :     66.13s CPU     66.46s WALL (    4928 calls)
     ccgdiagg     :   6016.40s CPU   6097.83s WALL (    2242 calls)
     wfcrot       :   1015.94s CPU   1023.03s WALL (    1954 calls)

     Called by sum_band:
     sum_band:bec :      0.39s CPU      0.49s WALL (    2208 calls)
     addusdens    :     26.23s CPU     30.54s WALL (      69 calls)

     Called by *cgdiagg:
     h_psi        :   5409.46s CPU   5460.13s WALL (  243772 calls)
     s_psi        :    898.67s CPU    923.63s WALL (  485590 calls)
     cdiaghg      :      2.28s CPU      3.02s WALL (    1954 calls)

     Called by h_psi:
     h_psi:pot    :   5395.75s CPU   5445.24s WALL (  243772 calls)
     h_psi:calbec :    455.44s CPU    463.80s WALL (  243772 calls)
     vloc_psi     :   4464.97s CPU   4498.66s WALL (  243772 calls)
     add_vuspsi   :    462.82s CPU    474.39s WALL (  243772 calls)
     hs_1psi      :   4904.83s CPU   4957.35s WALL (  241818 calls)
     s_1psi       :    891.90s CPU    908.46s WALL (  241818 calls)

     General routines
     calbec       :    904.09s CPU    930.16s WALL (  488918 calls)
     fft          :      6.41s CPU      6.42s WALL (     976 calls)
     ffts         :      0.47s CPU      0.47s WALL (      69 calls)
     fftw         :   4417.00s CPU   4436.38s WALL (  681908 calls)
 
     Parallel routines
 
     PWSCF        :      2h12m CPU      2h14m WALL

 
   This run was terminated on:  16:38:28  23Apr2022            

=------------------------------------------------------------------------------=
   JOB DONE.
=------------------------------------------------------------------------------=
