
     Program PWSCF v.7.0 starts on 14Mar2022 at 19: 6: 3 

     This program is part of the open-source Quantum ESPRESSO suite
     for quantum simulation of materials; please cite
         "P. Giannozzi et al., J. Phys.:Condens. Matter 21 395502 (2009);
         "P. Giannozzi et al., J. Phys.:Condens. Matter 29 465901 (2017);
         "P. Giannozzi et al., J. Chem. Phys. 152 154105 (2020);
          URL http://www.quantum-espresso.org", 
     in publications or presentations arising from this work. More details at
     http://www.quantum-espresso.org/quote

     Parallel version (MPI), running on     1 processors

     MPI processes distributed on     1 nodes
     90092 MiB available memory on the printing compute node when the environment starts
 
     Waiting for input...
     Reading input from standard input
Warning: card &CELL ignored
Warning: card  CELL_DYNAMICS = 'BFGS', ignored
Warning: card  PRESS=0.1D0, ignored
Warning: card / ignored
     Message from routine read_cards :
     DEPRECATED: no units specified in ATOMIC_POSITIONS card
     Message from routine read_cards :
     ATOMIC_POSITIONS: units set to alat

     Current dimensions of program PWSCF are:
     Max number of different atomic species (ntypx) = 10
     Max number of k-points (npk) =  40000
     Max angular momentum in pseudopotentials (lmaxx) =  4
     Message from routine setup:
     using ibrav=0 with symmetry is DISCOURAGED, use correct ibrav instead

     Subspace diagonalization in iterative solution of the eigenvalue problem:
     a serial algorithm will be used

 
     G-vector sticks info
     --------------------
     sticks:   dense  smooth     PW     G-vecs:    dense   smooth      PW
     Sum         253     253     85                 2637     2637     537
 
     Using Slab Decomposition
 


     bravais-lattice index     =            0
     lattice parameter (alat)  =       6.6780  a.u.
     unit-cell volume          =      75.8007 (a.u.)^3
     number of atoms/cell      =            2
     number of atomic types    =            1
     number of electrons       =         8.00
     number of Kohn-Sham states=            4
     kinetic-energy cutoff     =      40.0000  Ry
     charge density cutoff     =     160.0000  Ry
     scf convergence threshold =      1.0E-08
     mixing beta               =       0.7000
     number of iterations used =            8  plain     mixing
     energy convergence thresh.=      1.0E-04
     force convergence thresh. =      1.0E-03
     Exchange-correlation= SLA  PZ   NOGX NOGC
                           (   1   1   0   0   0   0   0)
     nstep                     =           50


     celldm(1)=   6.678000  celldm(2)=   0.000000  celldm(3)=   0.000000
     celldm(4)=   0.000000  celldm(5)=   0.000000  celldm(6)=   0.000000

     crystal axes: (cart. coord. in units of alat)
               a(1) = (  -0.503000   0.000000   0.503000 )  
               a(2) = (   0.000000   0.503000   0.503000 )  
               a(3) = (  -0.503000   0.503000   0.000000 )  

     reciprocal axes: (cart. coord. in units 2 pi/alat)
               b(1) = ( -0.994036 -0.994036  0.994036 )  
               b(2) = (  0.994036  0.994036  0.994036 )  
               b(3) = ( -0.994036  0.994036 -0.994036 )  


     PseudoPot. # 1 for C  read from file:
     ./C_LDA.UPF
     MD5 check sum: 407c1fe918d93b14b177d5600f28733c
     Pseudo is Ultrasoft + core correction, Zval =  4.0
     Generated by new atomic code, or converted to UPF format
     Using radial grid of  721 points,  4 beta functions with: 
                l(1) =   0
                l(2) =   0
                l(3) =   1
                l(4) =   1
     Q(r) pseudized with  8 coefficients,  rinner =    1.100   1.100   1.100


     atomic species   valence    mass     pseudopotential
        C              4.00    12.01100     C ( 1.00)

      6 Sym. Ops. (no inversion) found



   Cartesian axes

     site n.     atom                  positions (alat units)
         1           C   tau(   1) = (   0.0000000   0.0000000   0.0000000  )
         2           C   tau(   2) = (   0.2500000   0.2500000   0.2500000  )

     number of k points=    32
                       cart. coord. in units 2pi/alat
        k(    1) = (   0.0000000   0.0000000   0.0000000), wk =   0.0092593
        k(    2) = (  -0.1656726   0.1656726  -0.1656726), wk =   0.0555556
        k(    3) = (  -0.3313453   0.3313453  -0.3313453), wk =   0.0555556
        k(    4) = (   0.4970179  -0.4970179   0.4970179), wk =   0.0277778
        k(    5) = (   0.0000000   0.3313453   0.0000000), wk =   0.0555556
        k(    6) = (  -0.1656726   0.4970179  -0.1656726), wk =   0.0555556
        k(    7) = (   0.6626905  -0.3313453   0.6626905), wk =   0.0555556
        k(    8) = (   0.4970179  -0.1656726   0.4970179), wk =   0.0555556
        k(    9) = (   0.3313453  -0.0000000   0.3313453), wk =   0.0555556
        k(   10) = (   0.0000000   0.6626905   0.0000000), wk =   0.0555556
        k(   11) = (   0.8283632  -0.1656726   0.8283632), wk =   0.0555556
        k(   12) = (   0.6626905  -0.0000000   0.6626905), wk =   0.0555556
        k(   13) = (   0.0000000  -0.9940358   0.0000000), wk =   0.0277778
        k(   14) = (   0.6626905  -0.3313453   0.9940358), wk =   0.1111111
        k(   15) = (   0.4970179  -0.1656726   0.8283632), wk =   0.1111111
        k(   16) = (  -0.3313453  -0.9940358   0.0000000), wk =   0.1111111
        k(   17) = (  -0.1656726  -0.1656726  -0.1656726), wk =   0.0185185
        k(   18) = (  -0.3313453  -0.3313453  -0.3313453), wk =   0.0185185
        k(   19) = (   0.4970179   0.4970179   0.4970179), wk =   0.0092593
        k(   20) = (   0.4970179   0.1656726  -0.1656726), wk =   0.1111111
        k(   21) = (  -0.4970179  -0.1656726  -0.1656726), wk =   0.0555556
        k(   22) = (  -0.3313453  -0.6626905   0.6626905), wk =   0.1111111
        k(   23) = (   0.3313453   0.6626905   0.6626905), wk =   0.0555556
        k(   24) = (  -0.1656726  -0.4970179   0.4970179), wk =   0.1111111
        k(   25) = (   0.1656726   0.4970179   0.4970179), wk =   0.0555556
        k(   26) = (  -0.0000000  -0.3313453   0.3313453), wk =   0.0555556
        k(   27) = (  -0.1656726  -0.8283632   0.8283632), wk =   0.1111111
        k(   28) = (   0.1656726   0.8283632   0.8283632), wk =   0.0555556
        k(   29) = (  -0.0000000  -0.6626905   0.6626905), wk =   0.0555556
        k(   30) = (  -0.3313453  -0.6626905   0.9940358), wk =   0.1111111
        k(   31) = (   0.1656726   0.4970179   0.8283632), wk =   0.0555556
        k(   32) = (  -0.8283632  -0.1656726   0.4970179), wk =   0.0555556

     Dense  grid:     2637 G-vectors     FFT dimensions: (  20,  20,  20)

     Estimated max dynamical RAM per process >       4.68 MB

     Initial potential from superposition of free atoms

     starting charge       7.9999, renormalised to       8.0000
     Starting wfcs are    8 randomized atomic wfcs

     total cpu time spent up to now is        1.0 secs

     Self-consistent Calculation

     iteration #  1     ecut=    40.00 Ry     beta= 0.70
     CG style diagonalization
     ethr =  1.00E-02,  avg # of iterations =  3.0

     total cpu time spent up to now is        1.5 secs

     total energy              =     -23.03959508 Ry
     estimated scf accuracy    <       0.13523534 Ry

     iteration #  2     ecut=    40.00 Ry     beta= 0.70
     CG style diagonalization
     ethr =  1.69E-03,  avg # of iterations =  3.6

     total cpu time spent up to now is        2.1 secs

     total energy              =     -23.05530190 Ry
     estimated scf accuracy    <       0.00144265 Ry

     iteration #  3     ecut=    40.00 Ry     beta= 0.70
     CG style diagonalization
     ethr =  1.80E-05,  avg # of iterations =  4.0

     total cpu time spent up to now is        2.7 secs

     total energy              =     -23.05575462 Ry
     estimated scf accuracy    <       0.00004948 Ry

     iteration #  4     ecut=    40.00 Ry     beta= 0.70
     CG style diagonalization
     ethr =  6.19E-07,  avg # of iterations =  4.0

     total cpu time spent up to now is        3.3 secs

     total energy              =     -23.05577153 Ry
     estimated scf accuracy    <       0.00000203 Ry

     iteration #  5     ecut=    40.00 Ry     beta= 0.70
     CG style diagonalization
     ethr =  2.54E-08,  avg # of iterations =  4.0

     total cpu time spent up to now is        3.9 secs

     total energy              =     -23.05577226 Ry
     estimated scf accuracy    <       0.00000001 Ry

     iteration #  6     ecut=    40.00 Ry     beta= 0.70
     CG style diagonalization
     ethr =  1.80E-10,  avg # of iterations =  4.8

     total cpu time spent up to now is        4.6 secs

     End of self-consistent calculation

          k = 0.0000 0.0000 0.0000 (   331 PWs)   bands (ev):

    -8.1697  13.1096  13.3551  13.3551

          k =-0.1657 0.1657-0.1657 (   320 PWs)   bands (ev):

    -7.3989   9.5513  12.1340  12.3188

          k =-0.3313 0.3313-0.3313 (   332 PWs)   bands (ev):

    -5.1332   3.9197  10.8440  11.0173

          k = 0.4970-0.4970 0.4970 (   332 PWs)   bands (ev):

    -2.2850  -0.1731  10.3641  10.5372

          k = 0.0000 0.3313 0.0000 (   327 PWs)   bands (ev):

    -7.1429  10.6170  10.7184  11.1184

          k =-0.1657 0.4970-0.1657 (   326 PWs)   bands (ev):

    -5.3749   6.1034   9.4524   9.7782

          k = 0.6627-0.3313 0.6627 (   321 PWs)   bands (ev):

    -2.3516   1.2517   8.2225   9.3305

          k = 0.4970-0.1657 0.4970 (   321 PWs)   bands (ev):

    -3.4437   2.7467   7.5368  10.3537

          k = 0.3313-0.0000 0.3313 (   321 PWs)   bands (ev):

    -6.1291   7.5725   8.4346  11.9539

          k = 0.0000 0.6627 0.0000 (   323 PWs)   bands (ev):

    -4.1271   6.2059   7.8893   7.9444

          k = 0.8284-0.1657 0.8284 (   326 PWs)   bands (ev):

    -1.5213   3.2008   5.4718   7.6191

          k = 0.6627-0.0000 0.6627 (   323 PWs)   bands (ev):

    -0.6467   2.3876   3.7765   8.5835

          k = 0.0000-0.9940 0.0000 (   326 PWs)   bands (ev):

     0.5764   0.6161   6.8954   6.9461

          k = 0.6627-0.3313 0.9940 (   324 PWs)   bands (ev):

    -3.1794   4.7058   5.8990   8.3888

          k = 0.4970-0.1657 0.8284 (   324 PWs)   bands (ev):

    -0.5129   1.5691   5.4044   7.2975

          k =-0.3313-0.9940 0.0000 (   330 PWs)   bands (ev):

     1.1475   1.2009   5.3389   5.3974

          k =-0.1657-0.1657-0.1657 (   320 PWs)   bands (ev):

    -7.3993   9.4492  12.2912  12.2912

          k =-0.3313-0.3313-0.3313 (   332 PWs)   bands (ev):

    -5.1328   3.8621  10.9644  10.9644

          k = 0.4970 0.4970 0.4970 (   332 PWs)   bands (ev):

    -2.2490  -0.2556  10.4760  10.4760

          k = 0.4970 0.1657-0.1657 (   326 PWs)   bands (ev):

    -5.3751   6.0849   9.3617   9.9028

          k =-0.4970-0.1657-0.1657 (   326 PWs)   bands (ev):

    -5.3751   6.0163   9.4304   9.9129

          k =-0.3313-0.6627 0.6627 (   321 PWs)   bands (ev):

    -2.3508   1.2461   8.3130   9.2420

          k = 0.3313 0.6627 0.6627 (   321 PWs)   bands (ev):

    -2.3356   1.1810   8.3160   9.2984

          k =-0.1657-0.4970 0.4970 (   321 PWs)   bands (ev):

    -3.4442   2.7530   7.6114  10.2474

          k = 0.1657 0.4970 0.4970 (   321 PWs)   bands (ev):

    -3.4400   2.6913   7.6127  10.3251

          k =-0.0000-0.3313 0.3313 (   321 PWs)   bands (ev):

    -6.1287   7.6660   8.4210  11.8307

          k =-0.1657-0.8284 0.8284 (   326 PWs)   bands (ev):

    -1.5199   3.1642   5.5652   7.5597

          k = 0.1657 0.8284 0.8284 (   326 PWs)   bands (ev):

    -1.5141   3.1230   5.5551   7.6122

          k =-0.0000-0.6627 0.6627 (   323 PWs)   bands (ev):

    -0.6640   2.4408   3.7933   8.5161

          k =-0.3313-0.6627 0.9940 (   324 PWs)   bands (ev):

    -3.1776   4.6328   5.9048   8.4711

          k = 0.1657 0.4970 0.8284 (   324 PWs)   bands (ev):

    -0.4726   1.4685   5.4624   7.3054

          k =-0.8284-0.1657 0.4970 (   324 PWs)   bands (ev):

    -0.5151   1.5644   5.4929   7.2085

     highest occupied level (ev):    13.3551

!    total energy              =     -23.05577228 Ry
     estimated scf accuracy    <          2.4E-10 Ry

     The total energy is the sum of the following terms:
     one-electron contribution =       8.05438577 Ry
     hartree contribution      =       1.90879410 Ry
     xc contribution           =      -7.36042686 Ry
     ewald contribution        =     -25.65852529 Ry

     convergence has been achieved in   6 iterations

     Forces acting on atoms (cartesian axes, Ry/au):

     atom    1 type  1   force =    -0.00784468   -0.00784468   -0.00784468
     atom    2 type  1   force =     0.00784468    0.00784468    0.00784468

     Total force =     0.019215     Total SCF correction =     0.000005


     Computing stress (Cartesian axis) and pressure

          total   stress  (Ry/bohr**3)                   (kbar)     P=      -88.21
  -0.00059965   0.00001705   0.00001705          -88.21        2.51        2.51
   0.00001705  -0.00059965   0.00001705            2.51      -88.21        2.51
   0.00001705   0.00001705  -0.00059965            2.51        2.51      -88.21


     BFGS Geometry Optimization
     Energy error            =      0.0E+00 Ry
     Gradient error          =      7.8E-03 Ry/Bohr

     number of scf cycles    =   1
     number of bfgs steps    =   0

     energy             new  =     -23.0557722773 Ry

     new trust radius        =       0.0135873782 bohr
     new conv_thr            =       0.0000000100 Ry


ATOMIC_POSITIONS (alat)
C            -0.0011747045       -0.0011747045       -0.0011747045
C             0.2511747045        0.2511747045        0.2511747045



     Writing config-only to output data dir ./Diamond.save/
     NEW-OLD atomic charge density approx. for the potential

     total cpu time spent up to now is        4.8 secs

     Self-consistent Calculation

     iteration #  1     ecut=    40.00 Ry     beta= 0.70
     CG style diagonalization
     ethr =  1.00E-06,  avg # of iterations =  5.9

     total cpu time spent up to now is        5.7 secs

     total energy              =     -23.05584653 Ry
     estimated scf accuracy    <       0.00003439 Ry

     iteration #  2     ecut=    40.00 Ry     beta= 0.70
     CG style diagonalization
     ethr =  4.30E-07,  avg # of iterations =  3.4

     total cpu time spent up to now is        6.2 secs

     total energy              =     -23.05585019 Ry
     estimated scf accuracy    <       0.00000065 Ry

     iteration #  3     ecut=    40.00 Ry     beta= 0.70
     CG style diagonalization
     ethr =  8.15E-09,  avg # of iterations =  3.8

     total cpu time spent up to now is        6.8 secs

     total energy              =     -23.05585038 Ry
     estimated scf accuracy    <       0.00000003 Ry

     iteration #  4     ecut=    40.00 Ry     beta= 0.70
     CG style diagonalization
     ethr =  4.02E-10,  avg # of iterations =  3.9

     total cpu time spent up to now is        7.4 secs

     End of self-consistent calculation

          k = 0.0000 0.0000 0.0000 (   331 PWs)   bands (ev):

    -8.1696  13.2266  13.2266  13.3655

          k =-0.1657 0.1657-0.1657 (   320 PWs)   bands (ev):

    -7.3990   9.5121  12.1989  12.3043

          k =-0.3313 0.3313-0.3313 (   332 PWs)   bands (ev):

    -5.1330   3.8973  10.8948  10.9929

          k = 0.4970-0.4970 0.4970 (   332 PWs)   bands (ev):

    -2.2709  -0.2052  10.4116  10.5094

          k = 0.0000 0.3313 0.0000 (   327 PWs)   bands (ev):

    -7.1428  10.6513  10.6941  11.1086

          k =-0.1657 0.4970-0.1657 (   326 PWs)   bands (ev):

    -5.3750   6.0553   9.3781   9.9228

          k = 0.6627-0.3313 0.6627 (   321 PWs)   bands (ev):

    -2.3445   1.2197   8.3333   9.2451

          k = 0.4970-0.1657 0.4970 (   321 PWs)   bands (ev):

    -3.4425   2.7301   7.6261  10.2579

          k = 0.3313-0.0000 0.3313 (   321 PWs)   bands (ev):

    -6.1287   7.6452   8.4258  11.8557

          k = 0.0000 0.6627 0.0000 (   323 PWs)   bands (ev):

    -4.1270   6.2075   7.8991   7.9328

          k = 0.8284-0.1657 0.8284 (   326 PWs)   bands (ev):

    -1.5171   3.1422   5.5777   7.5689

          k = 0.6627-0.0000 0.6627 (   323 PWs)   bands (ev):

    -0.6599   2.4290   3.7903   8.5299

          k = 0.0000-0.9940 0.0000 (   326 PWs)   bands (ev):

     0.5857   0.6073   6.9057   6.9354

          k = 0.6627-0.3313 0.9940 (   324 PWs)   bands (ev):

    -3.1778   4.6496   5.9027   8.4534

          k = 0.4970-0.1657 0.8284 (   324 PWs)   bands (ev):

    -0.4979   1.5281   5.4616   7.2658

          k =-0.3313-0.9940 0.0000 (   330 PWs)   bands (ev):

     1.1600   1.1891   5.3510   5.3848

          k =-0.1657-0.1657-0.1657 (   320 PWs)   bands (ev):

    -7.3988   9.5703  12.2140  12.2140

          k =-0.3313-0.3313-0.3313 (   332 PWs)   bands (ev):

    -5.1332   3.9299  10.9241  10.9241

          k = 0.4970 0.4970 0.4970 (   332 PWs)   bands (ev):

    -2.2908  -0.1590  10.4456  10.4456

          k = 0.4970 0.1657-0.1657 (   326 PWs)   bands (ev):

    -5.3749   6.0656   9.4230   9.8590

          k =-0.4970-0.1657-0.1657 (   326 PWs)   bands (ev):

    -5.3749   6.1046   9.3905   9.8461

          k =-0.3313-0.6627 0.6627 (   321 PWs)   bands (ev):

    -2.3450   1.2229   8.2784   9.2991

          k = 0.3313 0.6627 0.6627 (   321 PWs)   bands (ev):

    -2.3536   1.2597   8.2801   9.2631

          k =-0.1657-0.4970 0.4970 (   321 PWs)   bands (ev):

    -3.4422   2.7265   7.5826  10.3197

          k = 0.1657 0.4970 0.4970 (   321 PWs)   bands (ev):

    -3.4446   2.7614   7.5829  10.2738

          k =-0.0000-0.3313 0.3313 (   321 PWs)   bands (ev):

    -6.1289   7.5947   8.4301  11.9273

          k =-0.1657-0.8284 0.8284 (   326 PWs)   bands (ev):

    -1.5179   3.1625   5.5243   7.6038

          k = 0.1657 0.8284 0.8284 (   326 PWs)   bands (ev):

    -1.5212   3.1858   5.5310   7.5728

          k =-0.0000-0.6627 0.6627 (   323 PWs)   bands (ev):

    -0.6501   2.3998   3.7793   8.5691

          k =-0.3313-0.6627 0.9940 (   324 PWs)   bands (ev):

    -3.1789   4.6898   5.9015   8.4054

          k = 0.1657 0.4970 0.8284 (   324 PWs)   bands (ev):

    -0.5200   1.5845   5.4294   7.2604

          k =-0.8284-0.1657 0.4970 (   324 PWs)   bands (ev):

    -0.4966   1.5307   5.4124   7.3156

     highest occupied level (ev):    13.3655

!    total energy              =     -23.05585038 Ry
     estimated scf accuracy    <          4.5E-10 Ry

     The total energy is the sum of the following terms:
     one-electron contribution =       8.05451710 Ry
     hartree contribution      =       1.90876445 Ry
     xc contribution           =      -7.36042009 Ry
     ewald contribution        =     -25.65871184 Ry

     convergence has been achieved in   4 iterations

     Forces acting on atoms (cartesian axes, Ry/au):

     atom    1 type  1   force =     0.00432071    0.00432071    0.00432071
     atom    2 type  1   force =    -0.00432071   -0.00432071   -0.00432071

     Total force =     0.010584     Total SCF correction =     0.000020


     Computing stress (Cartesian axis) and pressure

          total   stress  (Ry/bohr**3)                   (kbar)     P=      -88.33
  -0.00060046  -0.00000827  -0.00000827          -88.33       -1.22       -1.22
  -0.00000827  -0.00060046  -0.00000827           -1.22      -88.33       -1.22
  -0.00000827  -0.00000827  -0.00060046           -1.22       -1.22      -88.33

     Energy error            =      7.8E-05 Ry
     Gradient error          =      4.3E-03 Ry/Bohr

     number of scf cycles    =   2
     number of bfgs steps    =   1

     energy             old  =     -23.0557722773 Ry
     energy             new  =     -23.0558503843 Ry

     CASE: energy            _new < energy            _old

     new trust radius        =       0.0048257516 bohr
     new conv_thr            =            1.0E-10 Ry


ATOMIC_POSITIONS (alat)
C            -0.0007574914       -0.0007574914       -0.0007574914
C             0.2507574914        0.2507574914        0.2507574914



     Writing config-only to output data dir ./Diamond.save/
     NEW-OLD atomic charge density approx. for the potential

     total cpu time spent up to now is        7.7 secs

     Self-consistent Calculation

     iteration #  1     ecut=    40.00 Ry     beta= 0.70
     CG style diagonalization
     ethr =  1.00E-06,  avg # of iterations =  4.5

     Threshold (ethr) on eigenvalues was too large:
     Diagonalizing with lowered threshold

     CG style diagonalization
     ethr =  5.33E-08,  avg # of iterations =  2.8

     total cpu time spent up to now is        8.8 secs

     total energy              =     -23.05588468 Ry
     estimated scf accuracy    <       0.00000428 Ry

     iteration #  2     ecut=    40.00 Ry     beta= 0.70
     CG style diagonalization
     ethr =  5.35E-08,  avg # of iterations =  3.4

     total cpu time spent up to now is        9.3 secs

     total energy              =     -23.05588553 Ry
     estimated scf accuracy    <       0.00000008 Ry

     iteration #  3     ecut=    40.00 Ry     beta= 0.70
     CG style diagonalization
     ethr =  1.03E-09,  avg # of iterations =  3.8

     total cpu time spent up to now is        9.9 secs

     total energy              =     -23.05588555 Ry
     estimated scf accuracy    <          4.2E-09 Ry

     iteration #  4     ecut=    40.00 Ry     beta= 0.70
     CG style diagonalization
     ethr =  5.25E-11,  avg # of iterations =  3.8

     total cpu time spent up to now is       10.5 secs

     End of self-consistent calculation

          k = 0.0000 0.0000 0.0000 (   331 PWs)   bands (ev):

    -8.1695  13.2721  13.2721  13.2745

          k =-0.1657 0.1657-0.1657 (   320 PWs)   bands (ev):

    -7.3988   9.5269  12.2414  12.2432

          k =-0.3313 0.3313-0.3313 (   332 PWs)   bands (ev):

    -5.1329   3.9055  10.9382  10.9399

          k = 0.4970-0.4970 0.4970 (   332 PWs)   bands (ev):

    -2.2757  -0.1937  10.4560  10.4577

          k = 0.0000 0.3313 0.0000 (   327 PWs)   bands (ev):

    -7.1427  10.6753  10.6762  11.1029

          k =-0.1657 0.4970-0.1657 (   326 PWs)   bands (ev):

    -5.3748   6.0727   9.4047   9.8712

          k = 0.6627-0.3313 0.6627 (   321 PWs)   bands (ev):

    -2.3468   1.2312   8.2939   9.2755

          k = 0.4970-0.1657 0.4970 (   321 PWs)   bands (ev):

    -3.4427   2.7362   7.5944  10.2919

          k = 0.3313-0.0000 0.3313 (   321 PWs)   bands (ev):

    -6.1287   7.6209   8.4280  11.8906

          k = 0.0000 0.6627 0.0000 (   323 PWs)   bands (ev):

    -4.1269   6.2084   7.9154   7.9160

          k = 0.8284-0.1657 0.8284 (   326 PWs)   bands (ev):

    -1.5183   3.1631   5.5401   7.5870

          k = 0.6627-0.0000 0.6627 (   323 PWs)   bands (ev):

    -0.6549   2.4149   3.7849   8.5491

          k = 0.0000-0.9940 0.0000 (   326 PWs)   bands (ev):

     0.5965   0.5969   6.9202   6.9208

          k = 0.6627-0.3313 0.9940 (   324 PWs)   bands (ev):

    -3.1782   4.6696   5.9023   8.4296

          k = 0.4970-0.1657 0.8284 (   324 PWs)   bands (ev):

    -0.5028   1.5427   5.4418   7.2766

          k =-0.3313-0.9940 0.0000 (   330 PWs)   bands (ev):

     1.1745   1.1750   5.3676   5.3682

          k =-0.1657-0.1657-0.1657 (   320 PWs)   bands (ev):

    -7.3988   9.5279  12.2417  12.2417

          k =-0.3313-0.3313-0.3313 (   332 PWs)   bands (ev):

    -5.1329   3.9061  10.9387  10.9387

          k = 0.4970 0.4970 0.4970 (   332 PWs)   bands (ev):

    -2.2760  -0.1929  10.4566  10.4566

          k = 0.4970 0.1657-0.1657 (   326 PWs)   bands (ev):

    -5.3748   6.0729   9.4055   9.8701

          k =-0.4970-0.1657-0.1657 (   326 PWs)   bands (ev):

    -5.3748   6.0736   9.4049   9.8699

          k =-0.3313-0.6627 0.6627 (   321 PWs)   bands (ev):

    -2.3468   1.2312   8.2930   9.2764

          k = 0.3313 0.6627 0.6627 (   321 PWs)   bands (ev):

    -2.3470   1.2319   8.2930   9.2758

          k =-0.1657-0.4970 0.4970 (   321 PWs)   bands (ev):

    -3.4427   2.7361   7.5937  10.2930

          k = 0.1657 0.4970 0.4970 (   321 PWs)   bands (ev):

    -3.4427   2.7367   7.5937  10.2922

          k =-0.0000-0.3313 0.3313 (   321 PWs)   bands (ev):

    -6.1287   7.6200   8.4281  11.8918

          k =-0.1657-0.8284 0.8284 (   326 PWs)   bands (ev):

    -1.5183   3.1635   5.5391   7.5876

          k = 0.1657 0.8284 0.8284 (   326 PWs)   bands (ev):

    -1.5184   3.1639   5.5393   7.5870

          k =-0.0000-0.6627 0.6627 (   323 PWs)   bands (ev):

    -0.6547   2.4144   3.7847   8.5498

          k =-0.3313-0.6627 0.9940 (   324 PWs)   bands (ev):

    -3.1782   4.6703   5.9022   8.4288

          k = 0.1657 0.4970 0.8284 (   324 PWs)   bands (ev):

    -0.5032   1.5437   5.4412   7.2766

          k =-0.8284-0.1657 0.4970 (   324 PWs)   bands (ev):

    -0.5028   1.5427   5.4409   7.2775

     highest occupied level (ev):    13.2745

!    total energy              =     -23.05588555 Ry
     estimated scf accuracy    <          9.0E-11 Ry

     The total energy is the sum of the following terms:
     one-electron contribution =       8.05459367 Ry
     hartree contribution      =       1.90872366 Ry
     xc contribution           =      -7.36040660 Ry
     ewald contribution        =     -25.65879628 Ry

     convergence has been achieved in   4 iterations

     Forces acting on atoms (cartesian axes, Ry/au):

     atom    1 type  1   force =     0.00007825    0.00007825    0.00007825
     atom    2 type  1   force =    -0.00007825   -0.00007825   -0.00007825

     Total force =     0.000192     Total SCF correction =     0.000010


     Computing stress (Cartesian axis) and pressure

          total   stress  (Ry/bohr**3)                   (kbar)     P=      -88.49
  -0.00060151  -0.00000024  -0.00000024          -88.49       -0.04       -0.04
  -0.00000024  -0.00060151  -0.00000024           -0.04      -88.49       -0.04
  -0.00000024  -0.00000024  -0.00060151           -0.04       -0.04      -88.49

     Energy error            =      3.5E-05 Ry
     Gradient error          =      7.8E-05 Ry/Bohr

     bfgs converged in   3 scf cycles and   2 bfgs steps
     (criteria: energy <  1.0E-04 Ry, force <  1.0E-03 Ry/Bohr)

     End of BFGS Geometry Optimization

     Final energy             =     -23.0558855524 Ry

     File ./Diamond.bfgs deleted, as requested
Begin final coordinates

ATOMIC_POSITIONS (alat)
C            -0.0007574914       -0.0007574914       -0.0007574914
C             0.2507574914        0.2507574914        0.2507574914
End final coordinates



     Writing all to output data dir ./Diamond.save/
 
     init_run     :      0.54s CPU      0.58s WALL (       1 calls)
     electrons    :      7.54s CPU      9.02s WALL (       3 calls)
     update_pot   :      0.01s CPU      0.02s WALL (       2 calls)
     forces       :      0.07s CPU      0.08s WALL (       3 calls)
     stress       :      0.37s CPU      0.38s WALL (       3 calls)

     Called by init_run:
     wfcinit      :      0.22s CPU      0.23s WALL (       1 calls)
     potinit      :      0.00s CPU      0.01s WALL (       1 calls)
     hinit0       :      0.30s CPU      0.32s WALL (       1 calls)

     Called by electrons:
     c_bands      :      6.60s CPU      7.97s WALL (      15 calls)
     sum_band     :      0.83s CPU      0.88s WALL (      15 calls)
     v_of_rho     :      0.03s CPU      0.04s WALL (      17 calls)
     newd         :      0.06s CPU      0.06s WALL (      17 calls)
     mix_rho      :      0.01s CPU      0.01s WALL (      15 calls)

     Called by c_bands:
     init_us_2    :      0.24s CPU      0.29s WALL (    1184 calls)
     init_us_2:cp :      0.22s CPU      0.27s WALL (    1184 calls)
     ccgdiagg     :      5.20s CPU      5.80s WALL (     480 calls)
     wfcrot       :      1.30s CPU      1.38s WALL (     384 calls)

     Called by *cgdiagg:
     h_psi        :      5.36s CPU      5.89s WALL (    6485 calls)
     s_psi        :      0.24s CPU      0.28s WALL (   12586 calls)

     Called by h_psi:
     h_psi:calbec :      0.21s CPU      0.24s WALL (    6485 calls)
     vloc_psi     :      4.76s CPU      5.21s WALL (    6485 calls)
     add_vuspsi   :      0.14s CPU      0.16s WALL (    6485 calls)
     hs_1psi      :      4.60s CPU      5.11s WALL (    6101 calls)
     s_1psi       :      0.40s CPU      0.45s WALL (    6101 calls)

     General routines
     calbec       :      0.27s CPU      0.31s WALL (   13546 calls)
     fft          :      0.03s CPU      0.05s WALL (      95 calls)
     ffts         :      0.00s CPU      0.00s WALL (      15 calls)
     fftw         :      4.86s CPU      5.31s WALL (   17450 calls)
 
     Parallel routines
 
     PWSCF        :      8.97s CPU     10.96s WALL

 
   This run was terminated on:  19: 6:14  14Mar2022            

=------------------------------------------------------------------------------=
   JOB DONE.
=------------------------------------------------------------------------------=
