
     Program PWSCF v.7.0 starts on 14Mar2022 at 20:52:29 

     This program is part of the open-source Quantum ESPRESSO suite
     for quantum simulation of materials; please cite
         "P. Giannozzi et al., J. Phys.:Condens. Matter 21 395502 (2009);
         "P. Giannozzi et al., J. Phys.:Condens. Matter 29 465901 (2017);
         "P. Giannozzi et al., J. Chem. Phys. 152 154105 (2020);
          URL http://www.quantum-espresso.org", 
     in publications or presentations arising from this work. More details at
     http://www.quantum-espresso.org/quote

     Parallel version (MPI), running on     1 processors

     MPI processes distributed on     1 nodes
     90344 MiB available memory on the printing compute node when the environment starts
 
     Waiting for input...
     Reading input from standard input
Warning: card &CELL ignored
Warning: card  CELL_DYNAMICS = 'BFGS', ignored
Warning: card  PRESS=0.1D0, ignored
Warning: card / ignored
     Message from routine read_cards :
     DEPRECATED: no units specified in ATOMIC_POSITIONS card
     Message from routine read_cards :
     ATOMIC_POSITIONS: units set to alat

     Current dimensions of program PWSCF are:
     Max number of different atomic species (ntypx) = 10
     Max number of k-points (npk) =  40000
     Max angular momentum in pseudopotentials (lmaxx) =  4

     Subspace diagonalization in iterative solution of the eigenvalue problem:
     a serial algorithm will be used

 
     G-vector sticks info
     --------------------
     sticks:   dense  smooth     PW     G-vecs:    dense   smooth      PW
     Sum         253     253     85                 2637     2637     537
 
     Using Slab Decomposition
 


     bravais-lattice index     =            0
     lattice parameter (alat)  =       6.6800  a.u.
     unit-cell volume          =      74.5193 (a.u.)^3
     number of atoms/cell      =            2
     number of atomic types    =            1
     number of electrons       =         8.00
     number of Kohn-Sham states=            4
     kinetic-energy cutoff     =      40.0000  Ry
     charge density cutoff     =     160.0000  Ry
     scf convergence threshold =      1.0E-08
     mixing beta               =       0.7000
     number of iterations used =            8  plain     mixing
     energy convergence thresh.=      1.0E-04
     force convergence thresh. =      1.0E-03
     Exchange-correlation= SLA  PZ   NOGX NOGC
                           (   1   1   0   0   0   0   0)
     nstep                     =           50


     celldm(1)=   6.680000  celldm(2)=   0.000000  celldm(3)=   0.000000
     celldm(4)=   0.000000  celldm(5)=   0.000000  celldm(6)=   0.000000

     crystal axes: (cart. coord. in units of alat)
               a(1) = (  -0.500000  -0.000500   0.499500 )  
               a(2) = (   0.000500   0.500000   0.499500 )  
               a(3) = (  -0.500000   0.500000   0.000000 )  

     reciprocal axes: (cart. coord. in units 2 pi/alat)
               b(1) = ( -0.999001 -0.999001  1.001001 )  
               b(2) = (  0.999001  0.999001  1.001001 )  
               b(3) = ( -1.000000  1.000000 -1.000000 )  


     PseudoPot. # 1 for C  read from file:
     ./C_LDA.UPF
     MD5 check sum: 407c1fe918d93b14b177d5600f28733c
     Pseudo is Ultrasoft + core correction, Zval =  4.0
     Generated by new atomic code, or converted to UPF format
     Using radial grid of  721 points,  4 beta functions with: 
                l(1) =   0
                l(2) =   0
                l(3) =   1
                l(4) =   1
     Q(r) pseudized with  8 coefficients,  rinner =    1.100   1.100   1.100


     atomic species   valence    mass     pseudopotential
        C              4.00    12.01100     C ( 1.00)

     No symmetry found



   Cartesian axes

     site n.     atom                  positions (alat units)
         1           C   tau(   1) = (   0.0000000   0.0000000   0.0000000  )
         2           C   tau(   2) = (   0.2500000   0.2500000   0.2500000  )

     number of k points=   112

     Number of k-points >= 100: set verbosity='high' to print them.

     Dense  grid:     2637 G-vectors     FFT dimensions: (  20,  20,  20)

     Estimated max dynamical RAM per process >       6.22 MB

     Initial potential from superposition of free atoms

     starting charge       7.9999, renormalised to       8.0000
     Starting wfcs are    8 randomized atomic wfcs

     total cpu time spent up to now is        1.5 secs

     Self-consistent Calculation

     iteration #  1     ecut=    40.00 Ry     beta= 0.70
     CG style diagonalization
     ethr =  1.00E-02,  avg # of iterations =  3.0

     total cpu time spent up to now is        3.3 secs

     total energy              =     -23.03940083 Ry
     estimated scf accuracy    <       0.14054789 Ry

     iteration #  2     ecut=    40.00 Ry     beta= 0.70
     CG style diagonalization
     ethr =  1.76E-03,  avg # of iterations =  3.6

     total cpu time spent up to now is        5.2 secs

     total energy              =     -23.05575944 Ry
     estimated scf accuracy    <       0.00146572 Ry

     iteration #  3     ecut=    40.00 Ry     beta= 0.70
     CG style diagonalization
     ethr =  1.83E-05,  avg # of iterations =  4.0

     total cpu time spent up to now is        7.4 secs

     total energy              =     -23.05624722 Ry
     estimated scf accuracy    <       0.00004762 Ry

     iteration #  4     ecut=    40.00 Ry     beta= 0.70
     CG style diagonalization
     ethr =  5.95E-07,  avg # of iterations =  4.0

     total cpu time spent up to now is        9.5 secs

     total energy              =     -23.05626380 Ry
     estimated scf accuracy    <       0.00000204 Ry

     iteration #  5     ecut=    40.00 Ry     beta= 0.70
     CG style diagonalization
     ethr =  2.55E-08,  avg # of iterations =  4.0

     total cpu time spent up to now is       11.5 secs

     total energy              =     -23.05626451 Ry
     estimated scf accuracy    <       0.00000002 Ry

     iteration #  6     ecut=    40.00 Ry     beta= 0.70
     CG style diagonalization
     ethr =  1.90E-10,  avg # of iterations =  4.6

     total cpu time spent up to now is       14.0 secs

     End of self-consistent calculation

     Number of k-points >= 100: set verbosity='high' to print the bands.

     highest occupied level (ev):    13.6147

!    total energy              =     -23.05626453 Ry
     estimated scf accuracy    <          6.2E-10 Ry

     The total energy is the sum of the following terms:
     one-electron contribution =       8.24604308 Ry
     hartree contribution      =       1.89195082 Ry
     xc contribution           =      -7.38925432 Ry
     ewald contribution        =     -25.80500412 Ry

     convergence has been achieved in   6 iterations

     Forces acting on atoms (cartesian axes, Ry/au):

     atom    1 type  1   force =    -0.00207243   -0.00057186    0.00148823
     atom    2 type  1   force =     0.00207243    0.00057186   -0.00148823

     Total force =     0.003698     Total SCF correction =     0.000001


     Computing stress (Cartesian axis) and pressure

          total   stress  (Ry/bohr**3)                   (kbar)     P=      -12.52
  -0.00011742  -0.00004381  -0.00001870          -17.27       -6.45       -2.75
  -0.00004381  -0.00011740   0.00002541           -6.45      -17.27        3.74
  -0.00001870   0.00002541  -0.00002060           -2.75        3.74       -3.03


     BFGS Geometry Optimization
     Energy error            =      0.0E+00 Ry
     Gradient error          =      2.1E-03 Ry/Bohr

     number of scf cycles    =   1
     number of bfgs steps    =   0

     energy             new  =     -23.0562645323 Ry

     new trust radius        =       0.0026147309 bohr
     new conv_thr            =       0.0000000100 Ry


ATOMIC_POSITIONS (alat)
C            -0.0003102444       -0.0000856076        0.0002227884
C             0.2503102444        0.2500856076        0.2497772116



     Writing config-only to output data dir ./Diamond.save/
     NEW-OLD atomic charge density approx. for the potential

     total cpu time spent up to now is       14.6 secs

     Self-consistent Calculation

     iteration #  1     ecut=    40.00 Ry     beta= 0.70
     CG style diagonalization
     c_bands:  1 eigenvalues not converged
     c_bands:  1 eigenvalues not converged
     c_bands:  1 eigenvalues not converged
     c_bands:  1 eigenvalues not converged
     c_bands:  1 eigenvalues not converged
     c_bands:  1 eigenvalues not converged
     c_bands:  1 eigenvalues not converged
     c_bands:  1 eigenvalues not converged
     ethr =  1.00E-06,  avg # of iterations =  4.2

     Threshold (ethr) on eigenvalues was too large:
     Diagonalizing with lowered threshold

     CG style diagonalization
     c_bands:  2 eigenvalues not converged
     c_bands:  1 eigenvalues not converged
     c_bands:  1 eigenvalues not converged
     c_bands:  1 eigenvalues not converged
     c_bands:  1 eigenvalues not converged
     c_bands:  2 eigenvalues not converged
     c_bands:  1 eigenvalues not converged
     c_bands:  1 eigenvalues not converged
     c_bands:  1 eigenvalues not converged
     c_bands:  1 eigenvalues not converged
     ethr =  2.19E-08,  avg # of iterations =  5.2

     total cpu time spent up to now is       19.5 secs

     total energy              =     -23.05626697 Ry
     estimated scf accuracy    <       0.00000133 Ry

     iteration #  2     ecut=    40.00 Ry     beta= 0.70
     CG style diagonalization
     ethr =  1.66E-08,  avg # of iterations =  3.4

     total cpu time spent up to now is       21.4 secs

     total energy              =     -23.05626733 Ry
     estimated scf accuracy    <       0.00000003 Ry

     iteration #  3     ecut=    40.00 Ry     beta= 0.70
     CG style diagonalization
     ethr =  3.27E-10,  avg # of iterations =  3.9

     total cpu time spent up to now is       23.5 secs

     End of self-consistent calculation

     Number of k-points >= 100: set verbosity='high' to print the bands.

     highest occupied level (ev):    13.6047

!    total energy              =     -23.05626734 Ry
     estimated scf accuracy    <          1.3E-09 Ry

     The total energy is the sum of the following terms:
     one-electron contribution =       8.24607635 Ry
     hartree contribution      =       1.89195620 Ry
     xc contribution           =      -7.38925875 Ry
     ewald contribution        =     -25.80504114 Ry

     convergence has been achieved in   3 iterations

     Forces acting on atoms (cartesian axes, Ry/au):

     atom    1 type  1   force =     0.00123000    0.00032606   -0.00088847
     atom    2 type  1   force =    -0.00123000   -0.00032606    0.00088847

     Total force =     0.002195     Total SCF correction =     0.000019


     Computing stress (Cartesian axis) and pressure

          total   stress  (Ry/bohr**3)                   (kbar)     P=      -12.46
  -0.00011700  -0.00003746  -0.00002082          -17.21       -5.51       -3.06
  -0.00003746  -0.00011697   0.00001671           -5.51      -17.21        2.46
  -0.00002082   0.00001671  -0.00002020           -3.06        2.46       -2.97

     Energy error            =      2.8E-06 Ry
     Gradient error          =      1.2E-03 Ry/Bohr

     number of scf cycles    =   2
     number of bfgs steps    =   1

     energy             old  =     -23.0562645323 Ry
     energy             new  =     -23.0562673363 Ry

     CASE: energy            _new < energy            _old

     new trust radius        =       0.0009738896 bohr
     new conv_thr            =            1.0E-10 Ry


ATOMIC_POSITIONS (alat)
C            -0.0001946981       -0.0000549779        0.0001393250
C             0.2501946981        0.2500549779        0.2498606750



     Writing config-only to output data dir ./Diamond.save/
     NEW-OLD atomic charge density approx. for the potential

     total cpu time spent up to now is       24.1 secs

     Self-consistent Calculation

     iteration #  1     ecut=    40.00 Ry     beta= 0.70
     CG style diagonalization
     c_bands:  1 eigenvalues not converged
     ethr =  1.00E-06,  avg # of iterations =  2.6

     Threshold (ethr) on eigenvalues was too large:
     Diagonalizing with lowered threshold

     CG style diagonalization
     c_bands:  2 eigenvalues not converged
     c_bands:  1 eigenvalues not converged
     c_bands:  1 eigenvalues not converged
     c_bands:  1 eigenvalues not converged
     c_bands:  1 eigenvalues not converged
     c_bands:  1 eigenvalues not converged
     c_bands:  1 eigenvalues not converged
     c_bands:  1 eigenvalues not converged
     c_bands:  2 eigenvalues not converged
     c_bands:  2 eigenvalues not converged
     c_bands:  1 eigenvalues not converged
     c_bands:  1 eigenvalues not converged
     c_bands:  1 eigenvalues not converged
     c_bands:  1 eigenvalues not converged
     c_bands:  1 eigenvalues not converged
     c_bands:  1 eigenvalues not converged
     c_bands:  1 eigenvalues not converged
     c_bands:  1 eigenvalues not converged
     c_bands:  1 eigenvalues not converged
     c_bands:  1 eigenvalues not converged
     c_bands:  1 eigenvalues not converged
     c_bands:  1 eigenvalues not converged
     ethr =  2.72E-09,  avg # of iterations =  6.8

     total cpu time spent up to now is       29.0 secs

     total energy              =     -23.05626867 Ry
     estimated scf accuracy    <       0.00000018 Ry

     iteration #  2     ecut=    40.00 Ry     beta= 0.70
     CG style diagonalization
     ethr =  2.31E-09,  avg # of iterations =  3.5

     total cpu time spent up to now is       31.0 secs

     total energy              =     -23.05626884 Ry
     estimated scf accuracy    <          3.2E-09 Ry

     iteration #  3     ecut=    40.00 Ry     beta= 0.70
     CG style diagonalization
     ethr =  4.00E-11,  avg # of iterations =  3.8

     total cpu time spent up to now is       33.0 secs

     total energy              =     -23.05626884 Ry
     estimated scf accuracy    <          1.5E-10 Ry

     iteration #  4     ecut=    40.00 Ry     beta= 0.70
     CG style diagonalization
     ethr =  1.92E-12,  avg # of iterations =  3.9

     total cpu time spent up to now is       35.1 secs

     End of self-consistent calculation

     Number of k-points >= 100: set verbosity='high' to print the bands.

     highest occupied level (ev):    13.5981

!    total energy              =     -23.05626884 Ry
     estimated scf accuracy    <          7.3E-13 Ry

     The total energy is the sum of the following terms:
     one-electron contribution =       8.24606392 Ry
     hartree contribution      =       1.89195931 Ry
     xc contribution           =      -7.38925907 Ry
     ewald contribution        =     -25.80503299 Ry

     convergence has been achieved in   4 iterations

     Forces acting on atoms (cartesian axes, Ry/au):

     atom    1 type  1   force =    -0.00000335    0.00000038    0.00000565
     atom    2 type  1   force =     0.00000335   -0.00000038   -0.00000565

     Total force =     0.000009     Total SCF correction =     0.000001


     Computing stress (Cartesian axis) and pressure

          total   stress  (Ry/bohr**3)                   (kbar)     P=      -12.47
  -0.00011705  -0.00003991  -0.00002002          -17.22       -5.87       -2.94
  -0.00003991  -0.00011704   0.00002002           -5.87      -17.22        2.94
  -0.00002002   0.00002002  -0.00002025           -2.94        2.94       -2.98

     Energy error            =      1.5E-06 Ry
     Gradient error          =      5.7E-06 Ry/Bohr

     bfgs converged in   3 scf cycles and   2 bfgs steps
     (criteria: energy <  1.0E-04 Ry, force <  1.0E-03 Ry/Bohr)

     End of BFGS Geometry Optimization

     Final energy             =     -23.0562688360 Ry

     File ./Diamond.bfgs deleted, as requested
Begin final coordinates

ATOMIC_POSITIONS (alat)
C            -0.0001946981       -0.0000549779        0.0001393250
C             0.2501946981        0.2500549779        0.2498606750
End final coordinates



     Writing all to output data dir ./Diamond.save/
 
     init_run     :      1.06s CPU      1.13s WALL (       1 calls)
     electrons    :     26.51s CPU     32.39s WALL (       3 calls)
     update_pot   :      0.05s CPU      0.05s WALL (       2 calls)
     forces       :      0.21s CPU      0.24s WALL (       3 calls)
     stress       :      1.12s CPU      1.14s WALL (       3 calls)

     Called by init_run:
     wfcinit      :      0.75s CPU      0.78s WALL (       1 calls)
     potinit      :      0.01s CPU      0.01s WALL (       1 calls)
     hinit0       :      0.29s CPU      0.31s WALL (       1 calls)

     Called by electrons:
     c_bands      :     23.72s CPU     29.40s WALL (      15 calls)
     sum_band     :      2.69s CPU      2.83s WALL (      15 calls)
     v_of_rho     :      0.03s CPU      0.04s WALL (      16 calls)
     newd         :      0.06s CPU      0.07s WALL (      16 calls)
     mix_rho      :      0.01s CPU      0.01s WALL (      15 calls)

     Called by c_bands:
     init_us_2    :      0.77s CPU      0.99s WALL (    4144 calls)
     init_us_2:cp :      0.71s CPU      0.93s WALL (    4144 calls)
     ccgdiagg     :     19.23s CPU     21.65s WALL (    1680 calls)
     wfcrot       :      4.08s CPU      4.46s WALL (    1232 calls)

     Called by *cgdiagg:
     h_psi        :     19.05s CPU     21.23s WALL (   23886 calls)
     s_psi        :      0.89s CPU      1.05s WALL (   46540 calls)

     Called by h_psi:
     h_psi:calbec :      0.80s CPU      0.89s WALL (   23886 calls)
     vloc_psi     :     16.80s CPU     18.69s WALL (   23886 calls)
     add_vuspsi   :      0.49s CPU      0.57s WALL (   23886 calls)
     hs_1psi      :     16.92s CPU     18.97s WALL (   22654 calls)
     s_1psi       :      1.52s CPU      1.74s WALL (   22654 calls)

     General routines
     calbec       :      0.99s CPU      1.15s WALL (   49900 calls)
     fft          :      0.03s CPU      0.05s WALL (      92 calls)
     ffts         :      0.00s CPU      0.00s WALL (      15 calls)
     fftw         :     17.16s CPU     18.99s WALL (   62780 calls)
 
     Parallel routines
 
     PWSCF        :     29.45s CPU     36.30s WALL

 
   This run was terminated on:  20:53: 5  14Mar2022            

=------------------------------------------------------------------------------=
   JOB DONE.
=------------------------------------------------------------------------------=
