
     Program PWSCF v.7.0 starts on 14Mar2022 at 19: 5:39 

     This program is part of the open-source Quantum ESPRESSO suite
     for quantum simulation of materials; please cite
         "P. Giannozzi et al., J. Phys.:Condens. Matter 21 395502 (2009);
         "P. Giannozzi et al., J. Phys.:Condens. Matter 29 465901 (2017);
         "P. Giannozzi et al., J. Chem. Phys. 152 154105 (2020);
          URL http://www.quantum-espresso.org", 
     in publications or presentations arising from this work. More details at
     http://www.quantum-espresso.org/quote

     Parallel version (MPI), running on     1 processors

     MPI processes distributed on     1 nodes
     90088 MiB available memory on the printing compute node when the environment starts
 
     Waiting for input...
     Reading input from standard input
Warning: card &CELL ignored
Warning: card  CELL_DYNAMICS = 'BFGS', ignored
Warning: card  PRESS=0.1D0, ignored
Warning: card / ignored
     Message from routine read_cards :
     DEPRECATED: no units specified in ATOMIC_POSITIONS card
     Message from routine read_cards :
     ATOMIC_POSITIONS: units set to alat

     Current dimensions of program PWSCF are:
     Max number of different atomic species (ntypx) = 10
     Max number of k-points (npk) =  40000
     Max angular momentum in pseudopotentials (lmaxx) =  4
     Message from routine setup:
     using ibrav=0 with symmetry is DISCOURAGED, use correct ibrav instead

     Subspace diagonalization in iterative solution of the eigenvalue problem:
     a serial algorithm will be used

 
     G-vector sticks info
     --------------------
     sticks:   dense  smooth     PW     G-vecs:    dense   smooth      PW
     Sum         253     253     85                 2637     2637     531
 
     Using Slab Decomposition
 


     bravais-lattice index     =            0
     lattice parameter (alat)  =       6.6780  a.u.
     unit-cell volume          =      74.9001 (a.u.)^3
     number of atoms/cell      =            2
     number of atomic types    =            1
     number of electrons       =         8.00
     number of Kohn-Sham states=            4
     kinetic-energy cutoff     =      40.0000  Ry
     charge density cutoff     =     160.0000  Ry
     scf convergence threshold =      1.0E-08
     mixing beta               =       0.7000
     number of iterations used =            8  plain     mixing
     energy convergence thresh.=      1.0E-04
     force convergence thresh. =      1.0E-03
     Exchange-correlation= SLA  PZ   NOGX NOGC
                           (   1   1   0   0   0   0   0)
     nstep                     =           50


     celldm(1)=   6.678000  celldm(2)=   0.000000  celldm(3)=   0.000000
     celldm(4)=   0.000000  celldm(5)=   0.000000  celldm(6)=   0.000000

     crystal axes: (cart. coord. in units of alat)
               a(1) = (  -0.501000   0.000000   0.501000 )  
               a(2) = (   0.000000   0.501000   0.501000 )  
               a(3) = (  -0.501000   0.501000   0.000000 )  

     reciprocal axes: (cart. coord. in units 2 pi/alat)
               b(1) = ( -0.998004 -0.998004  0.998004 )  
               b(2) = (  0.998004  0.998004  0.998004 )  
               b(3) = ( -0.998004  0.998004 -0.998004 )  


     PseudoPot. # 1 for C  read from file:
     ./C_LDA.UPF
     MD5 check sum: 407c1fe918d93b14b177d5600f28733c
     Pseudo is Ultrasoft + core correction, Zval =  4.0
     Generated by new atomic code, or converted to UPF format
     Using radial grid of  721 points,  4 beta functions with: 
                l(1) =   0
                l(2) =   0
                l(3) =   1
                l(4) =   1
     Q(r) pseudized with  8 coefficients,  rinner =    1.100   1.100   1.100


     atomic species   valence    mass     pseudopotential
        C              4.00    12.01100     C ( 1.00)

      6 Sym. Ops. (no inversion) found



   Cartesian axes

     site n.     atom                  positions (alat units)
         1           C   tau(   1) = (   0.0000000   0.0000000   0.0000000  )
         2           C   tau(   2) = (   0.2500000   0.2500000   0.2500000  )

     number of k points=    32
                       cart. coord. in units 2pi/alat
        k(    1) = (   0.0000000   0.0000000   0.0000000), wk =   0.0092593
        k(    2) = (  -0.1663340   0.1663340  -0.1663340), wk =   0.0555556
        k(    3) = (  -0.3326680   0.3326680  -0.3326680), wk =   0.0555556
        k(    4) = (   0.4990020  -0.4990020   0.4990020), wk =   0.0277778
        k(    5) = (  -0.0000000   0.3326680  -0.0000000), wk =   0.0555556
        k(    6) = (  -0.1663340   0.4990020  -0.1663340), wk =   0.0555556
        k(    7) = (   0.6653360  -0.3326680   0.6653360), wk =   0.0555556
        k(    8) = (   0.4990020  -0.1663340   0.4990020), wk =   0.0555556
        k(    9) = (   0.3326680  -0.0000000   0.3326680), wk =   0.0555556
        k(   10) = (  -0.0000000   0.6653360  -0.0000000), wk =   0.0555556
        k(   11) = (   0.8316700  -0.1663340   0.8316700), wk =   0.0555556
        k(   12) = (   0.6653360  -0.0000000   0.6653360), wk =   0.0555556
        k(   13) = (   0.0000000  -0.9980040   0.0000000), wk =   0.0277778
        k(   14) = (   0.6653360  -0.3326680   0.9980040), wk =   0.1111111
        k(   15) = (   0.4990020  -0.1663340   0.8316700), wk =   0.1111111
        k(   16) = (  -0.3326680  -0.9980040   0.0000000), wk =   0.1111111
        k(   17) = (  -0.1663340  -0.1663340  -0.1663340), wk =   0.0185185
        k(   18) = (  -0.3326680  -0.3326680  -0.3326680), wk =   0.0185185
        k(   19) = (   0.4990020   0.4990020   0.4990020), wk =   0.0092593
        k(   20) = (   0.4990020   0.1663340  -0.1663340), wk =   0.1111111
        k(   21) = (  -0.4990020  -0.1663340  -0.1663340), wk =   0.0555556
        k(   22) = (  -0.3326680  -0.6653360   0.6653360), wk =   0.1111111
        k(   23) = (   0.3326680   0.6653360   0.6653360), wk =   0.0555556
        k(   24) = (  -0.1663340  -0.4990020   0.4990020), wk =   0.1111111
        k(   25) = (   0.1663340   0.4990020   0.4990020), wk =   0.0555556
        k(   26) = (  -0.0000000  -0.3326680   0.3326680), wk =   0.0555556
        k(   27) = (  -0.1663340  -0.8316700   0.8316700), wk =   0.1111111
        k(   28) = (   0.1663340   0.8316700   0.8316700), wk =   0.0555556
        k(   29) = (  -0.0000000  -0.6653360   0.6653360), wk =   0.0555556
        k(   30) = (  -0.3326680  -0.6653360   0.9980040), wk =   0.1111111
        k(   31) = (   0.1663340   0.4990020   0.8316700), wk =   0.0555556
        k(   32) = (  -0.8316700  -0.1663340   0.4990020), wk =   0.0555556

     Dense  grid:     2637 G-vectors     FFT dimensions: (  20,  20,  20)

     Estimated max dynamical RAM per process >       4.67 MB

     Initial potential from superposition of free atoms

     starting charge       7.9999, renormalised to       8.0000
     Starting wfcs are    8 randomized atomic wfcs

     total cpu time spent up to now is        0.9 secs

     Self-consistent Calculation

     iteration #  1     ecut=    40.00 Ry     beta= 0.70
     CG style diagonalization
     ethr =  1.00E-02,  avg # of iterations =  3.0

     total cpu time spent up to now is        1.4 secs

     total energy              =     -23.03959626 Ry
     estimated scf accuracy    <       0.13896270 Ry

     iteration #  2     ecut=    40.00 Ry     beta= 0.70
     CG style diagonalization
     ethr =  1.74E-03,  avg # of iterations =  3.6

     total cpu time spent up to now is        2.0 secs

     total energy              =     -23.05570814 Ry
     estimated scf accuracy    <       0.00145180 Ry

     iteration #  3     ecut=    40.00 Ry     beta= 0.70
     CG style diagonalization
     ethr =  1.81E-05,  avg # of iterations =  4.0

     total cpu time spent up to now is        2.6 secs

     total energy              =     -23.05618766 Ry
     estimated scf accuracy    <       0.00004747 Ry

     iteration #  4     ecut=    40.00 Ry     beta= 0.70
     CG style diagonalization
     ethr =  5.93E-07,  avg # of iterations =  4.0

     total cpu time spent up to now is        3.3 secs

     total energy              =     -23.05620505 Ry
     estimated scf accuracy    <       0.00000203 Ry

     iteration #  5     ecut=    40.00 Ry     beta= 0.70
     CG style diagonalization
     ethr =  2.54E-08,  avg # of iterations =  4.0

     total cpu time spent up to now is        3.9 secs

     total energy              =     -23.05620576 Ry
     estimated scf accuracy    <       0.00000002 Ry

     iteration #  6     ecut=    40.00 Ry     beta= 0.70
     CG style diagonalization
     ethr =  1.97E-10,  avg # of iterations =  4.7

     total cpu time spent up to now is        4.5 secs

     End of self-consistent calculation

          k = 0.0000 0.0000 0.0000 (   331 PWs)   bands (ev):

    -8.1133  13.4346  13.5173  13.5173

          k =-0.1663 0.1663-0.1663 (   320 PWs)   bands (ev):

    -7.3364   9.7188  12.4095  12.4719

          k =-0.3327 0.3327-0.3327 (   314 PWs)   bands (ev):

    -5.0508   4.0474  11.0979  11.1562

          k = 0.4990-0.4990 0.4990 (   332 PWs)   bands (ev):

    -2.1531  -0.1034  10.6114  10.6696

          k =-0.0000 0.3327-0.0000 (   315 PWs)   bands (ev):

    -7.0782  10.8440  10.8746  11.3189

          k =-0.1663 0.4990-0.1663 (   322 PWs)   bands (ev):

    -5.2954   6.2406   9.5918  10.0304

          k = 0.6653-0.3327 0.6653 (   321 PWs)   bands (ev):

    -2.2352   1.3472   8.4428   9.4651

          k = 0.4990-0.1663 0.4990 (   321 PWs)   bands (ev):

    -3.3446   2.8669   7.7383  10.4961

          k = 0.3327-0.0000 0.3327 (   317 PWs)   bands (ev):

    -6.0558   7.7806   8.5925  12.1141

          k =-0.0000 0.6653-0.0000 (   323 PWs)   bands (ev):

    -4.0372   6.3904   8.0606   8.0798

          k = 0.8317-0.1663 0.8317 (   318 PWs)   bands (ev):

    -1.4048   3.3327   5.6453   7.7495

          k = 0.6653-0.0000 0.6653 (   323 PWs)   bands (ev):

    -0.5213   2.5487   3.8904   8.7233

          k = 0.0000-0.9980 0.0000 (   326 PWs)   bands (ev):

     0.7219   0.7346   7.0561   7.0734

          k = 0.6653-0.3327 0.9980 (   318 PWs)   bands (ev):

    -3.0792   4.8446   6.0385   8.5774

          k = 0.4990-0.1663 0.8317 (   318 PWs)   bands (ev):

    -0.3686   1.6648   5.5761   7.4280

          k =-0.3327-0.9980 0.0000 (   320 PWs)   bands (ev):

     1.3100   1.3273   5.4818   5.5016

          k =-0.1663-0.1663-0.1663 (   320 PWs)   bands (ev):

    -7.3365   9.6844  12.4627  12.4627

          k =-0.3327-0.3327-0.3327 (   314 PWs)   bands (ev):

    -5.0508   4.0283  11.1386  11.1386

          k = 0.4990 0.4990 0.4990 (   332 PWs)   bands (ev):

    -2.1414  -0.1306  10.6491  10.6491

          k = 0.4990 0.1663-0.1663 (   322 PWs)   bands (ev):

    -5.2955   6.2347   9.5628  10.0706

          k =-0.4990-0.1663-0.1663 (   322 PWs)   bands (ev):

    -5.2955   6.2117   9.5844  10.0756

          k =-0.3327-0.6653 0.6653 (   321 PWs)   bands (ev):

    -2.2350   1.3454   8.4741   9.4343

          k = 0.3327 0.6653 0.6653 (   321 PWs)   bands (ev):

    -2.2301   1.3240   8.4741   9.4543

          k =-0.1663-0.4990 0.4990 (   321 PWs)   bands (ev):

    -3.3448   2.8689   7.7637  10.4599

          k = 0.1663 0.4990 0.4990 (   321 PWs)   bands (ev):

    -3.3435   2.8486   7.7638  10.4865

          k =-0.0000-0.3327 0.3327 (   317 PWs)   bands (ev):

    -6.0556   7.8113   8.5888  12.0722

          k =-0.1663-0.8317 0.8317 (   318 PWs)   bands (ev):

    -1.4043   3.3205   5.6768   7.7292

          k = 0.1663 0.8317 0.8317 (   318 PWs)   bands (ev):

    -1.4025   3.3068   5.6732   7.7472

          k =-0.0000-0.6653 0.6653 (   323 PWs)   bands (ev):

    -0.5269   2.5661   3.8964   8.7004

          k =-0.3327-0.6653 0.9980 (   318 PWs)   bands (ev):

    -3.0787   4.8205   6.0399   8.6054

          k = 0.1663 0.4990 0.8317 (   318 PWs)   bands (ev):

    -0.3554   1.6315   5.5953   7.4309

          k =-0.8317-0.1663 0.4990 (   318 PWs)   bands (ev):

    -0.3692   1.6632   5.6056   7.3982

     highest occupied level (ev):    13.5173

!    total energy              =     -23.05620578 Ry
     estimated scf accuracy    <          1.5E-10 Ry

     The total energy is the sum of the following terms:
     one-electron contribution =       8.18863972 Ry
     hartree contribution      =       1.89695778 Ry
     xc contribution           =      -7.38060675 Ry
     ewald contribution        =     -25.76119653 Ry

     convergence has been achieved in   6 iterations

     Forces acting on atoms (cartesian axes, Ry/au):

     atom    1 type  1   force =    -0.00264736   -0.00264736   -0.00264736
     atom    2 type  1   force =     0.00264736    0.00264736    0.00264736

     Total force =     0.006485     Total SCF correction =     0.000000


     Computing stress (Cartesian axis) and pressure

          total   stress  (Ry/bohr**3)                   (kbar)     P=      -35.67
  -0.00024248   0.00000657   0.00000657          -35.67        0.97        0.97
   0.00000657  -0.00024248   0.00000657            0.97      -35.67        0.97
   0.00000657   0.00000657  -0.00024248            0.97        0.97      -35.67


     BFGS Geometry Optimization
     Energy error            =      0.0E+00 Ry
     Gradient error          =      2.6E-03 Ry/Bohr

     number of scf cycles    =   1
     number of bfgs steps    =   0

     energy             new  =     -23.0562057796 Ry

     new trust radius        =       0.0045853569 bohr
     new conv_thr            =       0.0000000100 Ry


ATOMIC_POSITIONS (alat)
C            -0.0003964296       -0.0003964296       -0.0003964296
C             0.2503964296        0.2503964296        0.2503964296



     Writing config-only to output data dir ./Diamond.save/
     NEW-OLD atomic charge density approx. for the potential

     total cpu time spent up to now is        4.8 secs

     Self-consistent Calculation

     iteration #  1     ecut=    40.00 Ry     beta= 0.70
     CG style diagonalization
     ethr =  1.00E-06,  avg # of iterations =  4.5

     Threshold (ethr) on eigenvalues was too large:
     Diagonalizing with lowered threshold

     CG style diagonalization
     ethr =  5.04E-08,  avg # of iterations =  2.9

     total cpu time spent up to now is        6.0 secs

     total energy              =     -23.05621321 Ry
     estimated scf accuracy    <       0.00000408 Ry

     iteration #  2     ecut=    40.00 Ry     beta= 0.70
     CG style diagonalization
     ethr =  5.10E-08,  avg # of iterations =  3.3

     total cpu time spent up to now is        6.5 secs

     total energy              =     -23.05621362 Ry
     estimated scf accuracy    <       0.00000008 Ry

     iteration #  3     ecut=    40.00 Ry     beta= 0.70
     CG style diagonalization
     ethr =  9.45E-10,  avg # of iterations =  3.9

     total cpu time spent up to now is        7.1 secs

     End of self-consistent calculation

          k = 0.0000 0.0000 0.0000 (   331 PWs)   bands (ev):

    -8.1133  13.4736  13.4736  13.5220

          k =-0.1663 0.1663-0.1663 (   320 PWs)   bands (ev):

    -7.3364   9.7053  12.4311  12.4678

          k =-0.3327 0.3327-0.3327 (   314 PWs)   bands (ev):

    -5.0508   4.0399  11.1146  11.1487

          k = 0.4990-0.4990 0.4990 (   332 PWs)   bands (ev):

    -2.1484  -0.1141  10.6269  10.6610

          k =-0.0000 0.3327-0.0000 (   315 PWs)   bands (ev):

    -7.0782  10.8518  10.8681  11.3178

          k =-0.1663 0.4990-0.1663 (   322 PWs)   bands (ev):

    -5.2954   6.2246   9.5666  10.0795

          k = 0.6653-0.3327 0.6653 (   321 PWs)   bands (ev):

    -2.2330   1.3367   8.4804   9.4361

          k = 0.4990-0.1663 0.4990 (   321 PWs)   bands (ev):

    -3.3442   2.8613   7.7687  10.4635

          k = 0.3327-0.0000 0.3327 (   317 PWs)   bands (ev):

    -6.0556   7.8049   8.5899  12.0808

          k =-0.0000 0.6653-0.0000 (   323 PWs)   bands (ev):

    -4.0372   6.3906   8.0644   8.0759

          k = 0.8317-0.1663 0.8317 (   318 PWs)   bands (ev):

    -1.4035   3.3129   5.6813   7.7324

          k = 0.6653-0.0000 0.6653 (   323 PWs)   bands (ev):

    -0.5256   2.5625   3.8953   8.7051

          k = 0.0000-0.9980 0.0000 (   326 PWs)   bands (ev):

     0.7247   0.7320   7.0597   7.0699

          k = 0.6653-0.3327 0.9980 (   318 PWs)   bands (ev):

    -3.0788   4.8257   6.0396   8.5996

          k = 0.4990-0.1663 0.8317 (   318 PWs)   bands (ev):

    -0.3636   1.6510   5.5954   7.4174

          k =-0.3327-0.9980 0.0000 (   320 PWs)   bands (ev):

     1.3138   1.3237   5.4859   5.4975

          k =-0.1663-0.1663-0.1663 (   320 PWs)   bands (ev):

    -7.3363   9.7255  12.4365  12.4365

          k =-0.3327-0.3327-0.3327 (   314 PWs)   bands (ev):

    -5.0508   4.0511  11.1249  11.1249

          k = 0.4990 0.4990 0.4990 (   332 PWs)   bands (ev):

    -2.1552  -0.0983  10.6388  10.6388

          k = 0.4990 0.1663-0.1663 (   322 PWs)   bands (ev):

    -5.2954   6.2280   9.5828  10.0568

          k =-0.4990-0.1663-0.1663 (   322 PWs)   bands (ev):

    -5.2954   6.2415   9.5709  10.0530

          k =-0.3327-0.6653 0.6653 (   321 PWs)   bands (ev):

    -2.2331   1.3377   8.4617   9.4546

          k = 0.3327 0.6653 0.6653 (   321 PWs)   bands (ev):

    -2.2359   1.3502   8.4620   9.4423

          k =-0.1663-0.4990 0.4990 (   321 PWs)   bands (ev):

    -3.3442   2.8601   7.7537  10.4849

          k = 0.1663 0.4990 0.4990 (   321 PWs)   bands (ev):

    -3.3449   2.8720   7.7538  10.4691

          k =-0.0000-0.3327 0.3327 (   317 PWs)   bands (ev):

    -6.0557   7.7873   8.5916  12.1055

          k =-0.1663-0.8317 0.8317 (   318 PWs)   bands (ev):

    -1.4037   3.3200   5.6629   7.7445

          k = 0.1663 0.8317 0.8317 (   318 PWs)   bands (ev):

    -1.4048   3.3280   5.6651   7.7338

          k =-0.0000-0.6653 0.6653 (   323 PWs)   bands (ev):

    -0.5224   2.5525   3.8916   8.7186

          k =-0.3327-0.6653 0.9980 (   318 PWs)   bands (ev):

    -3.0791   4.8396   6.0390   8.5831

          k = 0.1663 0.4990 0.8317 (   318 PWs)   bands (ev):

    -0.3711   1.6704   5.5843   7.4156

          k =-0.8317-0.1663 0.4990 (   318 PWs)   bands (ev):

    -0.3632   1.6520   5.5783   7.4347

     highest occupied level (ev):    13.5220

!    total energy              =     -23.05621364 Ry
     estimated scf accuracy    <          4.0E-09 Ry

     The total energy is the sum of the following terms:
     one-electron contribution =       8.18865904 Ry
     hartree contribution      =       1.89694615 Ry
     xc contribution           =      -7.38060242 Ry
     ewald contribution        =     -25.76121641 Ry

     convergence has been achieved in   3 iterations

     Forces acting on atoms (cartesian axes, Ry/au):

     atom    1 type  1   force =     0.00153992    0.00153992    0.00153992
     atom    2 type  1   force =    -0.00153992   -0.00153992   -0.00153992

     Total force =     0.003772     Total SCF correction =     0.000032


     Computing stress (Cartesian axis) and pressure

          total   stress  (Ry/bohr**3)                   (kbar)     P=      -35.72
  -0.00024280  -0.00000378  -0.00000378          -35.72       -0.56       -0.56
  -0.00000378  -0.00024280  -0.00000378           -0.56      -35.72       -0.56
  -0.00000378  -0.00000378  -0.00024280           -0.56       -0.56      -35.72

     Energy error            =      7.9E-06 Ry
     Gradient error          =      1.5E-03 Ry/Bohr

     number of scf cycles    =   2
     number of bfgs steps    =   1

     energy             old  =     -23.0562057796 Ry
     energy             new  =     -23.0562136401 Ry

     CASE: energy            _new < energy            _old

     new trust radius        =       0.0016863216 bohr
     new conv_thr            =            1.0E-10 Ry


ATOMIC_POSITIONS (alat)
C            -0.0002506377       -0.0002506377       -0.0002506377
C             0.2502506377        0.2502506377        0.2502506377



     Writing config-only to output data dir ./Diamond.save/
     NEW-OLD atomic charge density approx. for the potential

     total cpu time spent up to now is        7.4 secs

     Self-consistent Calculation

     iteration #  1     ecut=    40.00 Ry     beta= 0.70
     CG style diagonalization
     ethr =  1.00E-06,  avg # of iterations =  3.3

     Threshold (ethr) on eigenvalues was too large:
     Diagonalizing with lowered threshold

     CG style diagonalization
     ethr =  1.10E-08,  avg # of iterations =  4.1

     total cpu time spent up to now is        8.5 secs

     total energy              =     -23.05621810 Ry
     estimated scf accuracy    <       0.00000053 Ry

     iteration #  2     ecut=    40.00 Ry     beta= 0.70
     CG style diagonalization
     ethr =  6.64E-09,  avg # of iterations =  3.4

     total cpu time spent up to now is        9.0 secs

     total energy              =     -23.05621815 Ry
     estimated scf accuracy    <       0.00000001 Ry

     iteration #  3     ecut=    40.00 Ry     beta= 0.70
     CG style diagonalization
     ethr =  1.31E-10,  avg # of iterations =  3.9

     total cpu time spent up to now is        9.6 secs

     total energy              =     -23.05621815 Ry
     estimated scf accuracy    <          5.3E-10 Ry

     iteration #  4     ecut=    40.00 Ry     beta= 0.70
     CG style diagonalization
     ethr =  6.64E-12,  avg # of iterations =  3.8

     total cpu time spent up to now is       10.2 secs

     End of self-consistent calculation

          k = 0.0000 0.0000 0.0000 (   331 PWs)   bands (ev):

    -8.1133  13.4896  13.4896  13.4898

          k =-0.1663 0.1663-0.1663 (   320 PWs)   bands (ev):

    -7.3364   9.7103  12.4461  12.4462

          k =-0.3327 0.3327-0.3327 (   314 PWs)   bands (ev):

    -5.0508   4.0427  11.1299  11.1300

          k = 0.4990-0.4990 0.4990 (   332 PWs)   bands (ev):

    -2.1501  -0.1102  10.6426  10.6427

          k =-0.0000 0.3327-0.0000 (   315 PWs)   bands (ev):

    -7.0782  10.8602  10.8603  11.3171

          k =-0.1663 0.4990-0.1663 (   322 PWs)   bands (ev):

    -5.2954   6.2305   9.5759  10.0614

          k = 0.6653-0.3327 0.6653 (   321 PWs)   bands (ev):

    -2.2338   1.3405   8.4666   9.4467

          k = 0.4990-0.1663 0.4990 (   321 PWs)   bands (ev):

    -3.3444   2.8634   7.7575  10.4755

          k = 0.3327-0.0000 0.3327 (   317 PWs)   bands (ev):

    -6.0557   7.7961   8.5907  12.0930

          k =-0.0000 0.6653-0.0000 (   323 PWs)   bands (ev):

    -4.0372   6.3907   8.0701   8.0701

          k = 0.8317-0.1663 0.8317 (   318 PWs)   bands (ev):

    -1.4039   3.3202   5.6681   7.7387

          k = 0.6653-0.0000 0.6653 (   323 PWs)   bands (ev):

    -0.5240   2.5575   3.8934   8.7118

          k = 0.0000-0.9980 0.0000 (   326 PWs)   bands (ev):

     0.7283   0.7283   7.0648   7.0648

          k = 0.6653-0.3327 0.9980 (   318 PWs)   bands (ev):

    -3.0789   4.8326   6.0393   8.5914

          k = 0.4990-0.1663 0.8317 (   318 PWs)   bands (ev):

    -0.3654   1.6561   5.5884   7.4212

          k =-0.3327-0.9980 0.0000 (   320 PWs)   bands (ev):

     1.3187   1.3188   5.4916   5.4917

          k =-0.1663-0.1663-0.1663 (   320 PWs)   bands (ev):

    -7.3364   9.7104  12.4461  12.4461

          k =-0.3327-0.3327-0.3327 (   314 PWs)   bands (ev):

    -5.0508   4.0427  11.1299  11.1299

          k = 0.4990 0.4990 0.4990 (   332 PWs)   bands (ev):

    -2.1501  -0.1101  10.6426  10.6426

          k = 0.4990 0.1663-0.1663 (   322 PWs)   bands (ev):

    -5.2954   6.2305   9.5759  10.0613

          k =-0.4990-0.1663-0.1663 (   322 PWs)   bands (ev):

    -5.2954   6.2306   9.5759  10.0613

          k =-0.3327-0.6653 0.6653 (   321 PWs)   bands (ev):

    -2.2338   1.3405   8.4665   9.4468

          k = 0.3327 0.6653 0.6653 (   321 PWs)   bands (ev):

    -2.2338   1.3406   8.4665   9.4468

          k =-0.1663-0.4990 0.4990 (   321 PWs)   bands (ev):

    -3.3444   2.8634   7.7575  10.4756

          k = 0.1663 0.4990 0.4990 (   321 PWs)   bands (ev):

    -3.3444   2.8634   7.7575  10.4755

          k =-0.0000-0.3327 0.3327 (   317 PWs)   bands (ev):

    -6.0557   7.7961   8.5907  12.0931

          k =-0.1663-0.8317 0.8317 (   318 PWs)   bands (ev):

    -1.4039   3.3202   5.6680   7.7388

          k = 0.1663 0.8317 0.8317 (   318 PWs)   bands (ev):

    -1.4039   3.3202   5.6680   7.7387

          k =-0.0000-0.6653 0.6653 (   323 PWs)   bands (ev):

    -0.5240   2.5575   3.8934   8.7119

          k =-0.3327-0.6653 0.9980 (   318 PWs)   bands (ev):

    -3.0789   4.8327   6.0393   8.5913

          k = 0.1663 0.4990 0.8317 (   318 PWs)   bands (ev):

    -0.3654   1.6562   5.5883   7.4212

          k =-0.8317-0.1663 0.4990 (   318 PWs)   bands (ev):

    -0.3654   1.6561   5.5883   7.4213

     highest occupied level (ev):    13.4898

!    total energy              =     -23.05621815 Ry
     estimated scf accuracy    <          2.2E-11 Ry

     The total energy is the sum of the following terms:
     one-electron contribution =       8.18866189 Ry
     hartree contribution      =       1.89695105 Ry
     xc contribution           =      -7.38060445 Ry
     ewald contribution        =     -25.76122664 Ry

     convergence has been achieved in   4 iterations

     Forces acting on atoms (cartesian axes, Ry/au):

     atom    1 type  1   force =     0.00000772    0.00000772    0.00000772
     atom    2 type  1   force =    -0.00000772   -0.00000772   -0.00000772

     Total force =     0.000019     Total SCF correction =     0.000006
     SCF correction compared to forces is large: reduce conv_thr to get better values


     Computing stress (Cartesian axis) and pressure

          total   stress  (Ry/bohr**3)                   (kbar)     P=      -35.70
  -0.00024269  -0.00000007  -0.00000007          -35.70       -0.01       -0.01
  -0.00000007  -0.00024269  -0.00000007           -0.01      -35.70       -0.01
  -0.00000007  -0.00000007  -0.00024269           -0.01       -0.01      -35.70

     Energy error            =      4.5E-06 Ry
     Gradient error          =      7.7E-06 Ry/Bohr

     bfgs converged in   3 scf cycles and   2 bfgs steps
     (criteria: energy <  1.0E-04 Ry, force <  1.0E-03 Ry/Bohr)

     End of BFGS Geometry Optimization

     Final energy             =     -23.0562181536 Ry

     File ./Diamond.bfgs deleted, as requested
Begin final coordinates

ATOMIC_POSITIONS (alat)
C            -0.0002506377       -0.0002506377       -0.0002506377
C             0.2502506377        0.2502506377        0.2502506377
End final coordinates



     Writing all to output data dir ./Diamond.save/
 
     init_run     :      0.51s CPU      0.55s WALL (       1 calls)
     electrons    :      7.24s CPU      8.75s WALL (       3 calls)
     update_pot   :      0.01s CPU      0.02s WALL (       2 calls)
     forces       :      0.07s CPU      0.08s WALL (       3 calls)
     stress       :      0.38s CPU      0.38s WALL (       3 calls)

     Called by init_run:
     wfcinit      :      0.22s CPU      0.23s WALL (       1 calls)
     potinit      :      0.00s CPU      0.01s WALL (       1 calls)
     hinit0       :      0.28s CPU      0.30s WALL (       1 calls)

     Called by electrons:
     c_bands      :      6.30s CPU      7.71s WALL (      15 calls)
     sum_band     :      0.84s CPU      0.88s WALL (      15 calls)
     v_of_rho     :      0.03s CPU      0.04s WALL (      16 calls)
     newd         :      0.05s CPU      0.06s WALL (      16 calls)
     mix_rho      :      0.01s CPU      0.01s WALL (      15 calls)

     Called by c_bands:
     init_us_2    :      0.24s CPU      0.28s WALL (    1184 calls)
     init_us_2:cp :      0.22s CPU      0.27s WALL (    1184 calls)
     ccgdiagg     :      5.00s CPU      5.63s WALL (     480 calls)
     wfcrot       :      1.21s CPU      1.28s WALL (     352 calls)

     Called by *cgdiagg:
     h_psi        :      5.09s CPU      5.64s WALL (    6263 calls)
     s_psi        :      0.23s CPU      0.27s WALL (   12174 calls)

     Called by h_psi:
     h_psi:calbec :      0.21s CPU      0.23s WALL (    6263 calls)
     vloc_psi     :      4.50s CPU      4.97s WALL (    6263 calls)
     add_vuspsi   :      0.13s CPU      0.15s WALL (    6263 calls)
     hs_1psi      :      4.41s CPU      4.94s WALL (    5911 calls)
     s_1psi       :      0.40s CPU      0.45s WALL (    5911 calls)

     General routines
     calbec       :      0.27s CPU      0.31s WALL (   13134 calls)
     fft          :      0.04s CPU      0.05s WALL (      92 calls)
     ffts         :      0.00s CPU      0.00s WALL (      15 calls)
     fftw         :      4.63s CPU      5.09s WALL (   16814 calls)
 
     Parallel routines
 
     PWSCF        :      8.65s CPU     10.68s WALL

 
   This run was terminated on:  19: 5:49  14Mar2022            

=------------------------------------------------------------------------------=
   JOB DONE.
=------------------------------------------------------------------------------=
