
     Program PWSCF v.7.0 starts on 14Mar2022 at 20:51:13 

     This program is part of the open-source Quantum ESPRESSO suite
     for quantum simulation of materials; please cite
         "P. Giannozzi et al., J. Phys.:Condens. Matter 21 395502 (2009);
         "P. Giannozzi et al., J. Phys.:Condens. Matter 29 465901 (2017);
         "P. Giannozzi et al., J. Chem. Phys. 152 154105 (2020);
          URL http://www.quantum-espresso.org", 
     in publications or presentations arising from this work. More details at
     http://www.quantum-espresso.org/quote

     Parallel version (MPI), running on     1 processors

     MPI processes distributed on     1 nodes
     90338 MiB available memory on the printing compute node when the environment starts
 
     Waiting for input...
     Reading input from standard input
Warning: card &CELL ignored
Warning: card  CELL_DYNAMICS = 'BFGS', ignored
Warning: card  PRESS=0.1D0, ignored
Warning: card / ignored
     Message from routine read_cards :
     DEPRECATED: no units specified in ATOMIC_POSITIONS card
     Message from routine read_cards :
     ATOMIC_POSITIONS: units set to alat

     Current dimensions of program PWSCF are:
     Max number of different atomic species (ntypx) = 10
     Max number of k-points (npk) =  40000
     Max angular momentum in pseudopotentials (lmaxx) =  4

     Subspace diagonalization in iterative solution of the eigenvalue problem:
     a serial algorithm will be used

 
     G-vector sticks info
     --------------------
     sticks:   dense  smooth     PW     G-vecs:    dense   smooth      PW
     Sum         253     253     85                 2637     2637     537
 
     Using Slab Decomposition
 


     bravais-lattice index     =            0
     lattice parameter (alat)  =       6.6800  a.u.
     unit-cell volume          =      74.5191 (a.u.)^3
     number of atoms/cell      =            2
     number of atomic types    =            1
     number of electrons       =         8.00
     number of Kohn-Sham states=            4
     kinetic-energy cutoff     =      40.0000  Ry
     charge density cutoff     =     160.0000  Ry
     scf convergence threshold =      1.0E-08
     mixing beta               =       0.7000
     number of iterations used =            8  plain     mixing
     energy convergence thresh.=      1.0E-04
     force convergence thresh. =      1.0E-03
     Exchange-correlation= SLA  PZ   NOGX NOGC
                           (   1   1   0   0   0   0   0)
     nstep                     =           50


     celldm(1)=   6.680000  celldm(2)=   0.000000  celldm(3)=   0.000000
     celldm(4)=   0.000000  celldm(5)=   0.000000  celldm(6)=   0.000000

     crystal axes: (cart. coord. in units of alat)
               a(1) = (  -0.500000   0.001000   0.501000 )  
               a(2) = (  -0.001000   0.500000   0.501000 )  
               a(3) = (  -0.500000   0.500000   0.000000 )  

     reciprocal axes: (cart. coord. in units 2 pi/alat)
               b(1) = ( -1.002004 -1.002004  0.998004 )  
               b(2) = (  1.002004  1.002004  0.998004 )  
               b(3) = ( -1.000000  1.000000 -1.000000 )  


     PseudoPot. # 1 for C  read from file:
     ./C_LDA.UPF
     MD5 check sum: 407c1fe918d93b14b177d5600f28733c
     Pseudo is Ultrasoft + core correction, Zval =  4.0
     Generated by new atomic code, or converted to UPF format
     Using radial grid of  721 points,  4 beta functions with: 
                l(1) =   0
                l(2) =   0
                l(3) =   1
                l(4) =   1
     Q(r) pseudized with  8 coefficients,  rinner =    1.100   1.100   1.100


     atomic species   valence    mass     pseudopotential
        C              4.00    12.01100     C ( 1.00)

     No symmetry found



   Cartesian axes

     site n.     atom                  positions (alat units)
         1           C   tau(   1) = (   0.0000000   0.0000000   0.0000000  )
         2           C   tau(   2) = (   0.2500000   0.2500000   0.2500000  )

     number of k points=   112

     Number of k-points >= 100: set verbosity='high' to print them.

     Dense  grid:     2637 G-vectors     FFT dimensions: (  20,  20,  20)

     Estimated max dynamical RAM per process >       6.22 MB

     Initial potential from superposition of free atoms

     starting charge       7.9999, renormalised to       8.0000
     Starting wfcs are    8 randomized atomic wfcs

     total cpu time spent up to now is        1.5 secs

     Self-consistent Calculation

     iteration #  1     ecut=    40.00 Ry     beta= 0.70
     CG style diagonalization
     ethr =  1.00E-02,  avg # of iterations =  3.0

     total cpu time spent up to now is        3.2 secs

     total energy              =     -23.03943038 Ry
     estimated scf accuracy    <       0.14046279 Ry

     iteration #  2     ecut=    40.00 Ry     beta= 0.70
     CG style diagonalization
     ethr =  1.76E-03,  avg # of iterations =  3.6

     total cpu time spent up to now is        5.2 secs

     total energy              =     -23.05572587 Ry
     estimated scf accuracy    <       0.00147026 Ry

     iteration #  3     ecut=    40.00 Ry     beta= 0.70
     CG style diagonalization
     ethr =  1.84E-05,  avg # of iterations =  4.0

     total cpu time spent up to now is        7.3 secs

     total energy              =     -23.05621454 Ry
     estimated scf accuracy    <       0.00004696 Ry

     iteration #  4     ecut=    40.00 Ry     beta= 0.70
     CG style diagonalization
     ethr =  5.87E-07,  avg # of iterations =  4.0

     total cpu time spent up to now is        9.4 secs

     total energy              =     -23.05623138 Ry
     estimated scf accuracy    <       0.00000202 Ry

     iteration #  5     ecut=    40.00 Ry     beta= 0.70
     CG style diagonalization
     ethr =  2.52E-08,  avg # of iterations =  4.0

     total cpu time spent up to now is       11.5 secs

     total energy              =     -23.05623208 Ry
     estimated scf accuracy    <       0.00000001 Ry

     iteration #  6     ecut=    40.00 Ry     beta= 0.70
     CG style diagonalization
     ethr =  1.67E-10,  avg # of iterations =  4.7

     total cpu time spent up to now is       13.9 secs

     End of self-consistent calculation

     Number of k-points >= 100: set verbosity='high' to print the bands.

     highest occupied level (ev):    13.6321

!    total energy              =     -23.05623210 Ry
     estimated scf accuracy    <          2.2E-10 Ry

     The total energy is the sum of the following terms:
     one-electron contribution =       8.24600131 Ry
     hartree contribution      =       1.89198842 Ry
     xc contribution           =      -7.38926774 Ry
     ewald contribution        =     -25.80495409 Ry

     convergence has been achieved in   6 iterations

     Forces acting on atoms (cartesian axes, Ry/au):

     atom    1 type  1   force =     0.00415148    0.00122857   -0.00296575
     atom    2 type  1   force =    -0.00415148   -0.00122857    0.00296575

     Total force =     0.007422     Total SCF correction =     0.000001


     Computing stress (Cartesian axis) and pressure

          total   stress  (Ry/bohr**3)                   (kbar)     P=      -12.40
  -0.00001952   0.00008792   0.00003593           -2.87       12.93        5.29
   0.00008792  -0.00001948  -0.00005075           12.93       -2.87       -7.47
   0.00003593  -0.00005075  -0.00021387            5.29       -7.47      -31.46


     BFGS Geometry Optimization
     Energy error            =      0.0E+00 Ry
     Gradient error          =      4.2E-03 Ry/Bohr

     number of scf cycles    =   1
     number of bfgs steps    =   0

     energy             new  =     -23.0562321019 Ry

     new trust radius        =       0.0052478444 bohr
     new conv_thr            =       0.0000000100 Ry


ATOMIC_POSITIONS (alat)
C             0.0006214797        0.0001839175       -0.0004439743
C             0.2493785203        0.2498160825        0.2504439743



     Writing config-only to output data dir ./Diamond.save/
     NEW-OLD atomic charge density approx. for the potential

     total cpu time spent up to now is       14.5 secs

     Self-consistent Calculation

     iteration #  1     ecut=    40.00 Ry     beta= 0.70
     CG style diagonalization
     c_bands:  2 eigenvalues not converged
     c_bands:  1 eigenvalues not converged
     c_bands:  1 eigenvalues not converged
     c_bands:  1 eigenvalues not converged
     c_bands:  1 eigenvalues not converged
     c_bands:  1 eigenvalues not converged
     c_bands:  1 eigenvalues not converged
     c_bands:  1 eigenvalues not converged
     c_bands:  1 eigenvalues not converged
     c_bands:  1 eigenvalues not converged
     c_bands:  1 eigenvalues not converged
     ethr =  1.00E-06,  avg # of iterations =  5.8

     Threshold (ethr) on eigenvalues was too large:
     Diagonalizing with lowered threshold

     CG style diagonalization
     c_bands:  2 eigenvalues not converged
     c_bands:  1 eigenvalues not converged
     c_bands:  1 eigenvalues not converged
     c_bands:  1 eigenvalues not converged
     c_bands:  1 eigenvalues not converged
     c_bands:  1 eigenvalues not converged
     c_bands:  1 eigenvalues not converged
     c_bands:  1 eigenvalues not converged
     ethr =  6.47E-08,  avg # of iterations =  3.8

     total cpu time spent up to now is       19.5 secs

     total energy              =     -23.05624237 Ry
     estimated scf accuracy    <       0.00000547 Ry

     iteration #  2     ecut=    40.00 Ry     beta= 0.70
     CG style diagonalization
     ethr =  6.84E-08,  avg # of iterations =  3.5

     total cpu time spent up to now is       21.4 secs

     total energy              =     -23.05624314 Ry
     estimated scf accuracy    <       0.00000010 Ry

     iteration #  3     ecut=    40.00 Ry     beta= 0.70
     CG style diagonalization
     ethr =  1.21E-09,  avg # of iterations =  3.8

     total cpu time spent up to now is       23.5 secs

     End of self-consistent calculation

     Number of k-points >= 100: set verbosity='high' to print the bands.

     highest occupied level (ev):    13.6283

!    total energy              =     -23.05624317 Ry
     estimated scf accuracy    <          4.7E-09 Ry

     The total energy is the sum of the following terms:
     one-electron contribution =       8.24619075 Ry
     hartree contribution      =       1.89192070 Ry
     xc contribution           =      -7.38925390 Ry
     ewald contribution        =     -25.80510071 Ry

     convergence has been achieved in   3 iterations

     Forces acting on atoms (cartesian axes, Ry/au):

     atom    1 type  1   force =    -0.00247145   -0.00078435    0.00174676
     atom    2 type  1   force =     0.00247145    0.00078435   -0.00174676

     Total force =     0.004421     Total SCF correction =     0.000026


     Computing stress (Cartesian axis) and pressure

          total   stress  (Ry/bohr**3)                   (kbar)     P=      -12.47
  -0.00001999   0.00007588   0.00004215           -2.94       11.16        6.20
   0.00007588  -0.00001988  -0.00003340           11.16       -2.92       -4.91
   0.00004215  -0.00003340  -0.00021442            6.20       -4.91      -31.54

     Energy error            =      1.1E-05 Ry
     Gradient error          =      2.5E-03 Ry/Bohr

     number of scf cycles    =   2
     number of bfgs steps    =   1

     energy             old  =     -23.0562321019 Ry
     energy             new  =     -23.0562431659 Ry

     CASE: energy            _new < energy            _old

     new trust radius        =       0.0019590923 bohr
     new conv_thr            =            1.0E-10 Ry


ATOMIC_POSITIONS (alat)
C             0.0003896418        0.0001103397       -0.0002801175
C             0.2496103582        0.2498896603        0.2502801175



     Writing config-only to output data dir ./Diamond.save/
     NEW-OLD atomic charge density approx. for the potential

     total cpu time spent up to now is       24.1 secs

     Self-consistent Calculation

     iteration #  1     ecut=    40.00 Ry     beta= 0.70
     CG style diagonalization
     c_bands:  1 eigenvalues not converged
     c_bands:  1 eigenvalues not converged
     ethr =  1.00E-06,  avg # of iterations =  3.7

     Threshold (ethr) on eigenvalues was too large:
     Diagonalizing with lowered threshold

     CG style diagonalization
     c_bands:  1 eigenvalues not converged
     c_bands:  1 eigenvalues not converged
     c_bands:  1 eigenvalues not converged
     c_bands:  1 eigenvalues not converged
     c_bands:  1 eigenvalues not converged
     c_bands:  1 eigenvalues not converged
     c_bands:  1 eigenvalues not converged
     c_bands:  2 eigenvalues not converged
     c_bands:  1 eigenvalues not converged
     c_bands:  1 eigenvalues not converged
     c_bands:  1 eigenvalues not converged
     c_bands:  1 eigenvalues not converged
     c_bands:  1 eigenvalues not converged
     c_bands:  1 eigenvalues not converged
     c_bands:  2 eigenvalues not converged
     c_bands:  1 eigenvalues not converged
     ethr =  1.45E-08,  avg # of iterations =  5.7

     total cpu time spent up to now is       29.0 secs

     total energy              =     -23.05624911 Ry
     estimated scf accuracy    <       0.00000074 Ry

     iteration #  2     ecut=    40.00 Ry     beta= 0.70
     CG style diagonalization
     ethr =  9.22E-09,  avg # of iterations =  3.4

     total cpu time spent up to now is       30.8 secs

     total energy              =     -23.05624931 Ry
     estimated scf accuracy    <       0.00000001 Ry

     iteration #  3     ecut=    40.00 Ry     beta= 0.70
     CG style diagonalization
     ethr =  1.81E-10,  avg # of iterations =  3.9

     total cpu time spent up to now is       32.9 secs

     total energy              =     -23.05624931 Ry
     estimated scf accuracy    <          6.8E-10 Ry

     iteration #  4     ecut=    40.00 Ry     beta= 0.70
     CG style diagonalization
     ethr =  8.51E-12,  avg # of iterations =  3.8

     total cpu time spent up to now is       35.0 secs

     End of self-consistent calculation

     Number of k-points >= 100: set verbosity='high' to print the bands.

     highest occupied level (ev):    13.6021

!    total energy              =     -23.05624931 Ry
     estimated scf accuracy    <          1.9E-11 Ry

     The total energy is the sum of the following terms:
     one-electron contribution =       8.24613455 Ry
     hartree contribution      =       1.89194598 Ry
     xc contribution           =      -7.38925984 Ry
     ewald contribution        =     -25.80507000 Ry

     convergence has been achieved in   4 iterations

     Forces acting on atoms (cartesian axes, Ry/au):

     atom    1 type  1   force =    -0.00000533    0.00000366    0.00001407
     atom    2 type  1   force =     0.00000533   -0.00000366   -0.00001407

     Total force =     0.000022     Total SCF correction =     0.000005
     SCF correction compared to forces is large: reduce conv_thr to get better values


     Computing stress (Cartesian axis) and pressure

          total   stress  (Ry/bohr**3)                   (kbar)     P=      -12.45
  -0.00001979   0.00008022   0.00003986           -2.91       11.80        5.86
   0.00008022  -0.00001979  -0.00003976           11.80       -2.91       -5.85
   0.00003986  -0.00003976  -0.00021424            5.86       -5.85      -31.52

     Energy error            =      6.1E-06 Ry
     Gradient error          =      1.4E-05 Ry/Bohr

     bfgs converged in   3 scf cycles and   2 bfgs steps
     (criteria: energy <  1.0E-04 Ry, force <  1.0E-03 Ry/Bohr)

     End of BFGS Geometry Optimization

     Final energy             =     -23.0562493104 Ry

     File ./Diamond.bfgs deleted, as requested
Begin final coordinates

ATOMIC_POSITIONS (alat)
C             0.0003896418        0.0001103397       -0.0002801175
C             0.2496103582        0.2498896603        0.2502801175
End final coordinates



     Writing all to output data dir ./Diamond.save/
 
     init_run     :      1.05s CPU      1.10s WALL (       1 calls)
     electrons    :     26.44s CPU     32.32s WALL (       3 calls)
     update_pot   :      0.05s CPU      0.05s WALL (       2 calls)
     forces       :      0.22s CPU      0.23s WALL (       3 calls)
     stress       :      1.12s CPU      1.13s WALL (       3 calls)

     Called by init_run:
     wfcinit      :      0.73s CPU      0.76s WALL (       1 calls)
     potinit      :      0.01s CPU      0.01s WALL (       1 calls)
     hinit0       :      0.29s CPU      0.31s WALL (       1 calls)

     Called by electrons:
     c_bands      :     23.65s CPU     29.32s WALL (      15 calls)
     sum_band     :      2.68s CPU      2.83s WALL (      15 calls)
     v_of_rho     :      0.03s CPU      0.04s WALL (      16 calls)
     newd         :      0.07s CPU      0.07s WALL (      16 calls)
     mix_rho      :      0.01s CPU      0.01s WALL (      15 calls)

     Called by c_bands:
     init_us_2    :      0.79s CPU      0.99s WALL (    4144 calls)
     init_us_2:cp :      0.73s CPU      0.92s WALL (    4144 calls)
     ccgdiagg     :     19.15s CPU     21.61s WALL (    1680 calls)
     wfcrot       :      4.09s CPU      4.46s WALL (    1232 calls)

     Called by *cgdiagg:
     h_psi        :     18.99s CPU     21.19s WALL (   23907 calls)
     s_psi        :      0.88s CPU      1.04s WALL (   46582 calls)

     Called by h_psi:
     h_psi:calbec :      0.79s CPU      0.88s WALL (   23907 calls)
     vloc_psi     :     16.75s CPU     18.65s WALL (   23907 calls)
     add_vuspsi   :      0.48s CPU      0.57s WALL (   23907 calls)
     hs_1psi      :     16.85s CPU     18.93s WALL (   22675 calls)
     s_1psi       :      1.53s CPU      1.75s WALL (   22675 calls)

     General routines
     calbec       :      0.98s CPU      1.14s WALL (   49942 calls)
     fft          :      0.04s CPU      0.05s WALL (      92 calls)
     ffts         :      0.00s CPU      0.00s WALL (      15 calls)
     fftw         :     17.10s CPU     18.95s WALL (   62822 calls)
 
     Parallel routines
 
     PWSCF        :     29.39s CPU     36.24s WALL

 
   This run was terminated on:  20:51:49  14Mar2022            

=------------------------------------------------------------------------------=
   JOB DONE.
=------------------------------------------------------------------------------=
