
     Program PWSCF v.7.0 starts on 14Mar2022 at 20:57:47 

     This program is part of the open-source Quantum ESPRESSO suite
     for quantum simulation of materials; please cite
         "P. Giannozzi et al., J. Phys.:Condens. Matter 21 395502 (2009);
         "P. Giannozzi et al., J. Phys.:Condens. Matter 29 465901 (2017);
         "P. Giannozzi et al., J. Chem. Phys. 152 154105 (2020);
          URL http://www.quantum-espresso.org", 
     in publications or presentations arising from this work. More details at
     http://www.quantum-espresso.org/quote

     Parallel version (MPI), running on     1 processors

     MPI processes distributed on     1 nodes
     90387 MiB available memory on the printing compute node when the environment starts
 
     Waiting for input...
     Reading input from standard input
Warning: card &CELL ignored
Warning: card  CELL_DYNAMICS = 'BFGS', ignored
Warning: card  PRESS=0.1D0, ignored
Warning: card / ignored
     Message from routine read_cards :
     DEPRECATED: no units specified in ATOMIC_POSITIONS card
     Message from routine read_cards :
     ATOMIC_POSITIONS: units set to alat

     Current dimensions of program PWSCF are:
     Max number of different atomic species (ntypx) = 10
     Max number of k-points (npk) =  40000
     Max angular momentum in pseudopotentials (lmaxx) =  4
     Message from routine setup:
     using ibrav=0 with symmetry is DISCOURAGED, use correct ibrav instead

     Subspace diagonalization in iterative solution of the eigenvalue problem:
     a serial algorithm will be used

 
     G-vector sticks info
     --------------------
     sticks:   dense  smooth     PW     G-vecs:    dense   smooth      PW
     Sum         253     253     85                 2637     2637     531
 
     Using Slab Decomposition
 


     bravais-lattice index     =            0
     lattice parameter (alat)  =       6.6800  a.u.
     unit-cell volume          =      74.5194 (a.u.)^3
     number of atoms/cell      =            2
     number of atomic types    =            1
     number of electrons       =         8.00
     number of Kohn-Sham states=            4
     kinetic-energy cutoff     =      40.0000  Ry
     charge density cutoff     =     160.0000  Ry
     scf convergence threshold =      1.0E-08
     mixing beta               =       0.7000
     number of iterations used =            8  plain     mixing
     energy convergence thresh.=      1.0E-04
     force convergence thresh. =      1.0E-03
     Exchange-correlation= SLA  PZ   NOGX NOGC
                           (   1   1   0   0   0   0   0)
     nstep                     =           50


     celldm(1)=   6.680000  celldm(2)=   0.000000  celldm(3)=   0.000000
     celldm(4)=   0.000000  celldm(5)=   0.000000  celldm(6)=   0.000000

     crystal axes: (cart. coord. in units of alat)
               a(1) = (  -0.500000   0.000000   0.500000 )  
               a(2) = (   0.000000   0.500000   0.500000 )  
               a(3) = (  -0.500000   0.500000   0.000000 )  

     reciprocal axes: (cart. coord. in units 2 pi/alat)
               b(1) = ( -1.000000 -1.000000  1.000000 )  
               b(2) = (  1.000000  1.000000  1.000000 )  
               b(3) = ( -1.000000  1.000000 -1.000000 )  


     PseudoPot. # 1 for C  read from file:
     ./C_LDA.UPF
     MD5 check sum: 407c1fe918d93b14b177d5600f28733c
     Pseudo is Ultrasoft + core correction, Zval =  4.0
     Generated by new atomic code, or converted to UPF format
     Using radial grid of  721 points,  4 beta functions with: 
                l(1) =   0
                l(2) =   0
                l(3) =   1
                l(4) =   1
     Q(r) pseudized with  8 coefficients,  rinner =    1.100   1.100   1.100


     atomic species   valence    mass     pseudopotential
        C              4.00    12.01100     C ( 1.00)

     48 Sym. Ops., with inversion, found (24 have fractional translation)



   Cartesian axes

     site n.     atom                  positions (alat units)
         1           C   tau(   1) = (   0.0000000   0.0000000   0.0000000  )
         2           C   tau(   2) = (   0.2500000   0.2500000   0.2500000  )

     number of k points=    16
                       cart. coord. in units 2pi/alat
        k(    1) = (   0.0000000   0.0000000   0.0000000), wk =   0.0092593
        k(    2) = (  -0.1666667   0.1666667  -0.1666667), wk =   0.0740741
        k(    3) = (  -0.3333333   0.3333333  -0.3333333), wk =   0.0740741
        k(    4) = (   0.5000000  -0.5000000   0.5000000), wk =   0.0370370
        k(    5) = (   0.0000000   0.3333333   0.0000000), wk =   0.0555556
        k(    6) = (  -0.1666667   0.5000000  -0.1666667), wk =   0.2222222
        k(    7) = (   0.6666667  -0.3333333   0.6666667), wk =   0.2222222
        k(    8) = (   0.5000000  -0.1666667   0.5000000), wk =   0.2222222
        k(    9) = (   0.3333333  -0.0000000   0.3333333), wk =   0.1111111
        k(   10) = (   0.0000000   0.6666667   0.0000000), wk =   0.0555556
        k(   11) = (   0.8333333  -0.1666667   0.8333333), wk =   0.2222222
        k(   12) = (   0.6666667  -0.0000000   0.6666667), wk =   0.1111111
        k(   13) = (   0.0000000  -1.0000000   0.0000000), wk =   0.0277778
        k(   14) = (   0.6666667  -0.3333333   1.0000000), wk =   0.2222222
        k(   15) = (   0.5000000  -0.1666667   0.8333333), wk =   0.2222222
        k(   16) = (  -0.3333333  -1.0000000   0.0000000), wk =   0.1111111

     Dense  grid:     2637 G-vectors     FFT dimensions: (  20,  20,  20)

     Estimated max dynamical RAM per process >       4.36 MB

     Initial potential from superposition of free atoms

     starting charge       7.9999, renormalised to       8.0000
     Starting wfcs are    8 randomized atomic wfcs

     total cpu time spent up to now is        2.3 secs

     Self-consistent Calculation

     iteration #  1     ecut=    40.00 Ry     beta= 0.70
     CG style diagonalization
     ethr =  1.00E-02,  avg # of iterations =  3.0

     total cpu time spent up to now is        2.7 secs

     total energy              =     -23.03943550 Ry
     estimated scf accuracy    <       0.14047588 Ry

     iteration #  2     ecut=    40.00 Ry     beta= 0.70
     CG style diagonalization
     ethr =  1.76E-03,  avg # of iterations =  3.5

     total cpu time spent up to now is        3.0 secs

     total energy              =     -23.05573969 Ry
     estimated scf accuracy    <       0.00149007 Ry

     iteration #  3     ecut=    40.00 Ry     beta= 0.70
     CG style diagonalization
     ethr =  1.86E-05,  avg # of iterations =  4.0

     total cpu time spent up to now is        3.3 secs

     total energy              =     -23.05626042 Ry
     estimated scf accuracy    <       0.00004445 Ry

     iteration #  4     ecut=    40.00 Ry     beta= 0.70
     CG style diagonalization
     ethr =  5.56E-07,  avg # of iterations =  4.0

     total cpu time spent up to now is        3.6 secs

     total energy              =     -23.05627707 Ry
     estimated scf accuracy    <       0.00000174 Ry

     iteration #  5     ecut=    40.00 Ry     beta= 0.70
     CG style diagonalization
     ethr =  2.17E-08,  avg # of iterations =  4.0

     total cpu time spent up to now is        3.9 secs

     total energy              =     -23.05627769 Ry
     estimated scf accuracy    <       0.00000001 Ry

     iteration #  6     ecut=    40.00 Ry     beta= 0.70
     CG style diagonalization
     ethr =  1.36E-10,  avg # of iterations =  4.8

     total cpu time spent up to now is        4.3 secs

     End of self-consistent calculation

          k = 0.0000 0.0000 0.0000 (   331 PWs)   bands (ev):

    -8.0890  13.5829  13.5829  13.5829

          k =-0.1667 0.1667-0.1667 (   320 PWs)   bands (ev):

    -7.3095   9.7891  12.5339  12.5339

          k =-0.3333 0.3333-0.3333 (   308 PWs)   bands (ev):

    -5.0154   4.1015  11.2121  11.2121

          k = 0.5000-0.5000 0.5000 (   332 PWs)   bands (ev):

    -2.0960  -0.0743  10.7226  10.7226

          k = 0.0000 0.3333 0.0000 (   315 PWs)   bands (ev):

    -7.0504  10.9393  10.9393  11.4091

          k =-0.1667 0.5000-0.1667 (   322 PWs)   bands (ev):

    -5.2612   6.2982   9.6493  10.1435

          k = 0.6667-0.3333 0.6667 (   321 PWs)   bands (ev):

    -2.1852   1.3875   8.5410   9.5202

          k = 0.5000-0.1667 0.5000 (   321 PWs)   bands (ev):

    -3.3021   2.9180   7.8279  10.5542

          k = 0.3333-0.0000 0.3333 (   317 PWs)   bands (ev):

    -6.0242   7.8715   8.6606  12.1799

          k = 0.0000 0.6667 0.0000 (   323 PWs)   bands (ev):

    -3.9986   6.4690   8.1365   8.1365

          k = 0.8333-0.1667 0.8333 (   318 PWs)   bands (ev):

    -1.3548   3.3875   5.7232   7.8039

          k = 0.6667-0.0000 0.6667 (   323 PWs)   bands (ev):

    -0.4678   2.6188   3.9401   8.7817

          k = 0.0000-1.0000 0.0000 (   326 PWs)   bands (ev):

     0.7849   0.7849   7.1268   7.1268

          k = 0.6667-0.3333 1.0000 (   318 PWs)   bands (ev):

    -3.0362   4.9025   6.0982   8.6610

          k = 0.5000-0.1667 0.8333 (   318 PWs)   bands (ev):

    -0.3062   1.7046   5.6515   7.4833

          k =-0.3333-1.0000 0.0000 (   320 PWs)   bands (ev):

     1.3806   1.3806   5.5448   5.5448

     highest occupied level (ev):    13.5829

!    total energy              =     -23.05627771 Ry
     estimated scf accuracy    <          1.5E-09 Ry

     The total energy is the sum of the following terms:
     one-electron contribution =       8.24605796 Ry
     hartree contribution      =       1.89193318 Ry
     xc contribution           =      -7.38924812 Ry
     ewald contribution        =     -25.80502073 Ry

     convergence has been achieved in   6 iterations

     Forces acting on atoms (cartesian axes, Ry/au):

     atom    1 type  1   force =    -0.00000000   -0.00000000    0.00000000
     atom    2 type  1   force =     0.00000000    0.00000000   -0.00000000

     Total force =     0.000000     Total SCF correction =     0.000000


     Computing stress (Cartesian axis) and pressure

          total   stress  (Ry/bohr**3)                   (kbar)     P=      -12.59
  -0.00008560  -0.00000000  -0.00000000          -12.59       -0.00       -0.00
  -0.00000000  -0.00008560   0.00000000           -0.00      -12.59        0.00
  -0.00000000   0.00000000  -0.00008560           -0.00        0.00      -12.59


     BFGS Geometry Optimization
     Energy error            =      0.0E+00 Ry
     Gradient error          =      4.1E-33 Ry/Bohr

     bfgs converged in   1 scf cycles and   0 bfgs steps
     (criteria: energy <  1.0E-04 Ry, force <  1.0E-03 Ry/Bohr)

     End of BFGS Geometry Optimization

     Final energy             =     -23.0562777127 Ry
Begin final coordinates

ATOMIC_POSITIONS (alat)
C             0.0000000000        0.0000000000        0.0000000000
C             0.2500000000        0.2500000000        0.2500000000
End final coordinates



     Writing all to output data dir ./Diamond.save/
 
     init_run     :      0.41s CPU      0.90s WALL (       1 calls)
     electrons    :      1.56s CPU      1.99s WALL (       1 calls)
     forces       :      0.02s CPU      0.11s WALL (       1 calls)
     stress       :      0.08s CPU      0.12s WALL (       1 calls)

     Called by init_run:
     wfcinit      :      0.10s CPU      0.29s WALL (       1 calls)
     potinit      :      0.01s CPU      0.04s WALL (       1 calls)
     hinit0       :      0.29s CPU      0.42s WALL (       1 calls)

     Called by electrons:
     c_bands      :      1.32s CPU      1.63s WALL (       6 calls)
     sum_band     :      0.19s CPU      0.22s WALL (       6 calls)
     v_of_rho     :      0.02s CPU      0.03s WALL (       7 calls)
     newd         :      0.02s CPU      0.04s WALL (       7 calls)
     mix_rho      :      0.01s CPU      0.01s WALL (       6 calls)

     Called by c_bands:
     init_us_2    :      0.05s CPU      0.06s WALL (     240 calls)
     init_us_2:cp :      0.05s CPU      0.06s WALL (     240 calls)
     ccgdiagg     :      1.01s CPU      1.13s WALL (      96 calls)
     wfcrot       :      0.34s CPU      0.50s WALL (      96 calls)

     Called by *cgdiagg:
     h_psi        :      1.11s CPU      1.26s WALL (    1267 calls)
     s_psi        :      0.05s CPU      0.09s WALL (    2438 calls)

     Called by h_psi:
     h_psi:calbec :      0.05s CPU      0.09s WALL (    1267 calls)
     vloc_psi     :      0.99s CPU      1.08s WALL (    1267 calls)
     add_vuspsi   :      0.03s CPU      0.03s WALL (    1267 calls)
     hs_1psi      :      0.89s CPU      0.98s WALL (    1171 calls)
     s_1psi       :      0.08s CPU      0.09s WALL (    1171 calls)

     General routines
     calbec       :      0.06s CPU      0.10s WALL (    2614 calls)
     fft          :      0.02s CPU      0.06s WALL (      36 calls)
     ffts         :      0.00s CPU      0.00s WALL (       6 calls)
     fftw         :      1.01s CPU      1.10s WALL (    3622 calls)
 
     Parallel routines
 
     PWSCF        :      2.38s CPU      4.96s WALL

 
   This run was terminated on:  20:57:52  14Mar2022            

=------------------------------------------------------------------------------=
   JOB DONE.
=------------------------------------------------------------------------------=
