
     Program PWSCF v.7.0 starts on 14Mar2022 at 23:24: 2 

     This program is part of the open-source Quantum ESPRESSO suite
     for quantum simulation of materials; please cite
         "P. Giannozzi et al., J. Phys.:Condens. Matter 21 395502 (2009);
         "P. Giannozzi et al., J. Phys.:Condens. Matter 29 465901 (2017);
         "P. Giannozzi et al., J. Chem. Phys. 152 154105 (2020);
          URL http://www.quantum-espresso.org", 
     in publications or presentations arising from this work. More details at
     http://www.quantum-espresso.org/quote

     Parallel version (MPI), running on     1 processors

     MPI processes distributed on     1 nodes
     90913 MiB available memory on the printing compute node when the environment starts
 
     Waiting for input...
     Reading input from standard input
Warning: card &CELL ignored
Warning: card  CELL_DYNAMICS = 'BFGS', ignored
Warning: card  PRESS=0.1D0, ignored
Warning: card / ignored
     Message from routine read_cards :
     DEPRECATED: no units specified in ATOMIC_POSITIONS card
     Message from routine read_cards :
     ATOMIC_POSITIONS: units set to alat

     Current dimensions of program PWSCF are:
     Max number of different atomic species (ntypx) = 10
     Max number of k-points (npk) =  40000
     Max angular momentum in pseudopotentials (lmaxx) =  4
     Message from routine setup:
     using ibrav=0 with symmetry is DISCOURAGED, use correct ibrav instead

     Subspace diagonalization in iterative solution of the eigenvalue problem:
     a serial algorithm will be used

 
     G-vector sticks info
     --------------------
     sticks:   dense  smooth     PW     G-vecs:    dense   smooth      PW
     Sum         249     249     85                 2557     2557     533
 
     Using Slab Decomposition
 


     bravais-lattice index     =            0
     lattice parameter (alat)  =       6.6720  a.u.
     unit-cell volume          =      74.2440 (a.u.)^3
     number of atoms/cell      =            2
     number of atomic types    =            1
     number of electrons       =         8.00
     number of Kohn-Sham states=            4
     kinetic-energy cutoff     =      40.0000  Ry
     charge density cutoff     =     160.0000  Ry
     scf convergence threshold =      1.0E-08
     mixing beta               =       0.7000
     number of iterations used =            8  plain     mixing
     energy convergence thresh.=      1.0E-04
     force convergence thresh. =      1.0E-03
     Exchange-correlation= SLA  PZ   NOGX NOGC
                           (   1   1   0   0   0   0   0)
     nstep                     =           50


     celldm(1)=   6.672000  celldm(2)=   0.000000  celldm(3)=   0.000000
     celldm(4)=   0.000000  celldm(5)=   0.000000  celldm(6)=   0.000000

     crystal axes: (cart. coord. in units of alat)
               a(1) = (  -0.497000   0.000000   0.506000 )  
               a(2) = (   0.000000   0.497000   0.506000 )  
               a(3) = (  -0.497000   0.497000   0.000000 )  

     reciprocal axes: (cart. coord. in units 2 pi/alat)
               b(1) = ( -1.006036 -1.006036  0.988142 )  
               b(2) = (  1.006036  1.006036  0.988142 )  
               b(3) = ( -1.006036  1.006036 -0.988142 )  


     PseudoPot. # 1 for C  read from file:
     ./C_LDA.UPF
     MD5 check sum: 407c1fe918d93b14b177d5600f28733c
     Pseudo is Ultrasoft + core correction, Zval =  4.0
     Generated by new atomic code, or converted to UPF format
     Using radial grid of  721 points,  4 beta functions with: 
                l(1) =   0
                l(2) =   0
                l(3) =   1
                l(4) =   1
     Q(r) pseudized with  8 coefficients,  rinner =    1.100   1.100   1.100


     atomic species   valence    mass     pseudopotential
        C              4.00    12.01100     C ( 1.00)

      2 Sym. Ops. (no inversion) found



   Cartesian axes

     site n.     atom                  positions (alat units)
         1           C   tau(   1) = (   0.0000000   0.0000000   0.0000000  )
         2           C   tau(   2) = (   0.2500000   0.2500000   0.2500000  )

     number of k points=    68
                       cart. coord. in units 2pi/alat
        k(    1) = (   0.0000000   0.0000000   0.0000000), wk =   0.0092593
        k(    2) = (  -0.1676727   0.1676727  -0.1646904), wk =   0.0370370
        k(    3) = (  -0.3353454   0.3353454  -0.3293808), wk =   0.0370370
        k(    4) = (   0.5030181  -0.5030181   0.4940711), wk =   0.0185185
        k(    5) = (   0.0000000   0.3353454   0.0000000), wk =   0.0370370
        k(    6) = (  -0.1676727   0.5030181  -0.1646904), wk =   0.0370370
        k(    7) = (   0.6706908  -0.3353454   0.6587615), wk =   0.0370370
        k(    8) = (   0.5030181  -0.1676727   0.4940711), wk =   0.0370370
        k(    9) = (   0.3353454  -0.0000000   0.3293808), wk =   0.0370370
        k(   10) = (   0.0000000   0.6706908   0.0000000), wk =   0.0370370
        k(   11) = (   0.8383635  -0.1676727   0.8234519), wk =   0.0370370
        k(   12) = (   0.6706908  -0.0000000   0.6587615), wk =   0.0370370
        k(   13) = (   0.0000000  -1.0060362   0.0000000), wk =   0.0185185
        k(   14) = (   0.0000000   0.0000000   0.3293808), wk =   0.0185185
        k(   15) = (  -0.3353454   0.3353454   0.0000000), wk =   0.0185185
        k(   16) = (   0.5030181  -0.5030181   0.8234519), wk =   0.0370370
        k(   17) = (   0.3353454  -0.3353454   0.6587615), wk =   0.0370370
        k(   18) = (   0.1676727  -0.1676727   0.4940711), wk =   0.0370370
        k(   19) = (   0.6706908  -0.3353454   0.9881423), wk =   0.0370370
        k(   20) = (   0.5030181  -0.1676727   0.8234519), wk =   0.0370370
        k(   21) = (   0.3353454  -0.0000000   0.6587615), wk =   0.0370370
        k(   22) = (  -1.0060362  -0.3353454  -0.6587615), wk =   0.0370370
        k(   23) = (  -0.3353454  -1.0060362   0.0000000), wk =   0.0370370
        k(   24) = (  -0.8383635  -0.1676727  -0.4940711), wk =   0.0185185
        k(   25) = (   0.0000000  -1.0060362   0.3293808), wk =   0.0370370
        k(   26) = (   0.0000000   0.0000000   0.6587615), wk =   0.0185185
        k(   27) = (   0.3353454  -0.3353454   0.9881423), wk =   0.0185185
        k(   28) = (   0.1676727  -0.1676727   0.8234519), wk =   0.0370370
        k(   29) = (  -0.6706908  -1.0060362   0.0000000), wk =   0.0370370
        k(   30) = (   0.0000000   0.0000000  -0.9881423), wk =   0.0092593
        k(   31) = (   0.1676727   0.1676727   0.1646904), wk =   0.0185185
        k(   32) = (  -0.1676727  -0.1676727   0.1646904), wk =   0.0185185
        k(   33) = (   0.3353454   0.3353454   0.3293808), wk =   0.0185185
        k(   34) = (  -0.3353454  -0.3353454   0.3293808), wk =   0.0185185
        k(   35) = (  -0.5030181  -0.5030181  -0.4940711), wk =   0.0092593
        k(   36) = (   0.5030181   0.5030181  -0.4940711), wk =   0.0092593
        k(   37) = (   0.1676727   0.5030181   0.1646904), wk =   0.0370370
        k(   38) = (  -0.1676727  -0.5030181   0.1646904), wk =   0.0370370
        k(   39) = (   0.5030181  -0.1676727   0.1646904), wk =   0.0370370
        k(   40) = (  -0.6706908  -0.3353454  -0.6587615), wk =   0.0370370
        k(   41) = (   0.6706908   0.3353454  -0.6587615), wk =   0.0370370
        k(   42) = (  -0.3353454   0.6706908  -0.6587615), wk =   0.0370370
        k(   43) = (  -0.5030181  -0.1676727  -0.4940711), wk =   0.0370370
        k(   44) = (   0.5030181   0.1676727  -0.4940711), wk =   0.0370370
        k(   45) = (  -0.1676727   0.5030181  -0.4940711), wk =   0.0370370
        k(   46) = (   0.3353454   0.0000000  -0.3293808), wk =   0.0370370
        k(   47) = (  -0.8383635  -0.1676727  -0.8234519), wk =   0.0370370
        k(   48) = (   0.8383635   0.1676727  -0.8234519), wk =   0.0370370
        k(   49) = (  -0.1676727   0.8383635  -0.8234519), wk =   0.0370370
        k(   50) = (   0.6706908  -0.0000000  -0.6587615), wk =   0.0370370
        k(   51) = (   0.3353454   0.3353454   0.0000000), wk =   0.0185185
        k(   52) = (  -0.5030181  -0.5030181  -0.8234519), wk =   0.0185185
        k(   53) = (   0.5030181   0.5030181  -0.8234519), wk =   0.0185185
        k(   54) = (  -0.3353454  -0.3353454  -0.6587615), wk =   0.0185185
        k(   55) = (   0.3353454   0.3353454  -0.6587615), wk =   0.0185185
        k(   56) = (  -0.1676727  -0.1676727  -0.4940711), wk =   0.0185185
        k(   57) = (   0.1676727   0.1676727  -0.4940711), wk =   0.0185185
        k(   58) = (  -0.6706908  -0.3353454  -0.9881423), wk =   0.0370370
        k(   59) = (  -0.5030181  -0.1676727  -0.8234519), wk =   0.0370370
        k(   60) = (   0.5030181   0.1676727  -0.8234519), wk =   0.0370370
        k(   61) = (  -0.1676727   0.5030181  -0.8234519), wk =   0.0370370
        k(   62) = (   0.3353454   0.0000000  -0.6587615), wk =   0.0370370
        k(   63) = (   1.0060362  -0.3353454   0.6587615), wk =   0.0370370
        k(   64) = (   0.8383635  -0.1676727   0.4940711), wk =   0.0370370
        k(   65) = (  -0.1676727  -0.8383635   0.4940711), wk =   0.0185185
        k(   66) = (  -0.3353454  -0.3353454  -0.9881423), wk =   0.0185185
        k(   67) = (  -0.1676727  -0.1676727  -0.8234519), wk =   0.0185185
        k(   68) = (   0.1676727   0.1676727  -0.8234519), wk =   0.0185185

     Dense  grid:     2557 G-vectors     FFT dimensions: (  20,  20,  20)

     Estimated max dynamical RAM per process >       5.27 MB

     Initial potential from superposition of free atoms

     starting charge       7.9999, renormalised to       8.0000
     Starting wfcs are    8 randomized atomic wfcs

     total cpu time spent up to now is        2.8 secs

     Self-consistent Calculation

     iteration #  1     ecut=    40.00 Ry     beta= 0.70
     CG style diagonalization
     ethr =  1.00E-02,  avg # of iterations =  3.0

     total cpu time spent up to now is        3.9 secs

     total energy              =     -23.03852798 Ry
     estimated scf accuracy    <       0.14163162 Ry

     iteration #  2     ecut=    40.00 Ry     beta= 0.70
     CG style diagonalization
     ethr =  1.77E-03,  avg # of iterations =  3.6

     total cpu time spent up to now is        5.1 secs

     total energy              =     -23.05498541 Ry
     estimated scf accuracy    <       0.00146184 Ry

     iteration #  3     ecut=    40.00 Ry     beta= 0.70
     CG style diagonalization
     ethr =  1.83E-05,  avg # of iterations =  4.0

     total cpu time spent up to now is        6.4 secs

     total energy              =     -23.05547162 Ry
     estimated scf accuracy    <       0.00004760 Ry

     iteration #  4     ecut=    40.00 Ry     beta= 0.70
     CG style diagonalization
     ethr =  5.95E-07,  avg # of iterations =  4.1

     total cpu time spent up to now is        7.7 secs

     total energy              =     -23.05548923 Ry
     estimated scf accuracy    <       0.00000215 Ry

     iteration #  5     ecut=    40.00 Ry     beta= 0.70
     CG style diagonalization
     ethr =  2.68E-08,  avg # of iterations =  4.0

     total cpu time spent up to now is        8.9 secs

     total energy              =     -23.05548999 Ry
     estimated scf accuracy    <       0.00000002 Ry

     iteration #  6     ecut=    40.00 Ry     beta= 0.70
     CG style diagonalization
     ethr =  2.13E-10,  avg # of iterations =  4.6

     total cpu time spent up to now is       10.4 secs

     End of self-consistent calculation

          k = 0.0000 0.0000 0.0000 (   331 PWs)   bands (ev):

    -8.0712  13.3912  13.6520  13.9126

          k =-0.1677 0.1677-0.1647 (   318 PWs)   bands (ev):

    -7.2894   9.8910  12.4896  12.6500

          k =-0.3353 0.3353-0.3294 (   314 PWs)   bands (ev):

    -4.9892   4.1735  11.1589  11.3528

          k = 0.5030-0.5030 0.4941 (   320 PWs)   bands (ev):

    -2.0733  -0.0061  10.6604  10.8781

          k = 0.0000 0.3353 0.0000 (   315 PWs)   bands (ev):

    -7.0173  10.8443  11.0109  11.6110

          k =-0.1677 0.5030-0.1647 (   317 PWs)   bands (ev):

    -5.2113   6.3542   9.6035  10.2874

          k = 0.6707-0.3353 0.6588 (   314 PWs)   bands (ev):

    -2.1269   1.4295   8.7009   9.4589

          k = 0.5030-0.1677 0.4941 (   319 PWs)   bands (ev):

    -3.2947   3.0294   7.9657  10.4819

          k = 0.3353-0.0000 0.3294 (   321 PWs)   bands (ev):

    -6.0130   7.9926   8.7736  12.1073

          k = 0.0000 0.6707 0.0000 (   319 PWs)   bands (ev):

    -3.9216   6.6432   8.0713   8.1513

          k = 0.8384-0.1677 0.8235 (   317 PWs)   bands (ev):

    -1.2550   3.5061   5.7685   7.7388

          k = 0.6707-0.0000 0.6588 (   314 PWs)   bands (ev):

    -0.4593   2.7676   4.0511   8.7071

          k = 0.0000-1.0060 0.0000 (   314 PWs)   bands (ev):

     0.9036   0.9423   7.0605   7.1108

          k = 0.0000 0.0000 0.3294 (   307 PWs)   bands (ev):

    -7.0550  10.9947  11.1967  11.2936

          k =-0.3353 0.3353 0.0000 (   317 PWs)   bands (ev):

    -5.9756   7.9762   8.5633  12.2737

          k = 0.5030-0.5030 0.8235 (   316 PWs)   bands (ev):

    -3.2281   2.9117   7.7495  10.6984

          k = 0.3353-0.3353 0.6588 (   315 PWs)   bands (ev):

    -2.2153   1.5044   8.4341   9.6724

          k = 0.1677-0.1677 0.4941 (   320 PWs)   bands (ev):

    -5.2848   6.4229   9.7622  10.0884

          k = 0.6707-0.3353 0.9881 (   318 PWs)   bands (ev):

    -2.9491   4.9573   5.9936   8.7561

          k = 0.5030-0.1677 0.8235 (   315 PWs)   bands (ev):

    -0.3014   1.7768   5.7094   7.4540

          k = 0.3353-0.0000 0.6588 (   318 PWs)   bands (ev):

    -3.0862   5.0090   6.2651   8.5472

          k =-1.0060-0.3353-0.6588 (   322 PWs)   bands (ev):

    -2.9811   5.0320   6.1562   8.6843

          k =-0.3353-1.0060 0.0000 (   312 PWs)   bands (ev):

     1.4562   1.5262   5.4600   5.5324

          k =-0.8384-0.1677-0.4941 (   316 PWs)   bands (ev):

    -0.2380   1.7611   5.8679   7.4294

          k = 0.0000-1.0060 0.3294 (   322 PWs)   bands (ev):

     1.4699   1.5228   5.5436   5.6024

          k = 0.0000 0.0000 0.6588 (   323 PWs)   bands (ev):

    -4.0662   6.2763   8.2913   8.4060

          k = 0.3353-0.3353 0.9881 (   321 PWs)   bands (ev):

    -0.3972   2.5629   3.8640   8.9539

          k = 0.1677-0.1677 0.8235 (   320 PWs)   bands (ev):

    -1.4530   3.3268   5.8388   7.9750

          k =-0.6707-1.0060 0.0000 (   312 PWs)   bands (ev):

     1.2376   1.3349   5.6401   5.7510

          k = 0.0000 0.0000-0.9881 (   318 PWs)   bands (ev):

     0.5953   0.6736   7.3042   7.4082

          k = 0.1677 0.1677 0.1647 (   318 PWs)   bands (ev):

    -7.2896   9.8486  12.3445  12.8523

          k =-0.1677-0.1677 0.1647 (   318 PWs)   bands (ev):

    -7.2901   9.7422  12.5066  12.8237

          k = 0.3353 0.3353 0.3294 (   314 PWs)   bands (ev):

    -4.9890   4.1460  10.9905  11.5546

          k =-0.3353-0.3353 0.3294 (   314 PWs)   bands (ev):

    -4.9892   4.0884  11.1129  11.5001

          k =-0.5030-0.5030-0.4941 (   320 PWs)   bands (ev):

    -2.0550  -0.0471  10.4833  11.0815

          k = 0.5030 0.5030-0.4941 (   320 PWs)   bands (ev):

    -2.0196  -0.1290  10.5965  11.0183

          k = 0.1677 0.5030 0.1647 (   317 PWs)   bands (ev):

    -5.2113   6.3128   9.5552  10.3916

          k =-0.1677-0.5030 0.1647 (   317 PWs)   bands (ev):

    -5.2117   6.2435   9.6383  10.3879

          k = 0.5030-0.1677 0.1647 (   317 PWs)   bands (ev):

    -5.2110   6.3705   9.6845  10.1740

          k =-0.6707-0.3353-0.6588 (   314 PWs)   bands (ev):

    -2.1185   1.3943   8.7006   9.4903

          k = 0.6707 0.3353-0.6588 (   314 PWs)   bands (ev):

    -2.1043   1.3303   8.7266   9.5232

          k =-0.3353 0.6707-0.6588 (   314 PWs)   bands (ev):

    -2.1275   1.4343   8.6014   9.5561

          k =-0.5030-0.1677-0.4941 (   319 PWs)   bands (ev):

    -3.2929   3.0032   7.9901  10.4799

          k = 0.5030 0.1677-0.4941 (   319 PWs)   bands (ev):

    -3.2898   2.9423   7.9974  10.5517

          k =-0.1677 0.5030-0.4941 (   319 PWs)   bands (ev):

    -3.2945   3.0238   7.8871  10.5912

          k = 0.3353 0.0000-0.3294 (   321 PWs)   bands (ev):

    -6.0136   7.8965   8.7907  12.2294

          k =-0.8384-0.1677-0.8235 (   317 PWs)   bands (ev):

    -1.2510   3.4631   5.8111   7.7386

          k = 0.8384 0.1677-0.8235 (   317 PWs)   bands (ev):

    -1.2456   3.4196   5.8059   7.7889

          k =-0.1677 0.8384-0.8235 (   317 PWs)   bands (ev):

    -1.2563   3.5447   5.6727   7.7984

          k = 0.6707-0.0000-0.6588 (   314 PWs)   bands (ev):

    -0.4443   2.7150   4.0365   8.7739

          k = 0.3353 0.3353 0.0000 (   317 PWs)   bands (ev):

    -5.9767   7.7888   8.5882  12.5289

          k =-0.5030-0.5030-0.8235 (   316 PWs)   bands (ev):

    -3.2251   2.8724   7.6354  10.9037

          k = 0.5030 0.5030-0.8235 (   316 PWs)   bands (ev):

    -3.2219   2.8175   7.7116  10.8741

          k =-0.3353-0.3353-0.6588 (   315 PWs)   bands (ev):

    -2.2091   1.4814   8.2939   9.8421

          k = 0.3353 0.3353-0.6588 (   315 PWs)   bands (ev):

    -2.1956   1.4131   8.3875   9.8092

          k =-0.1677-0.1677-0.4941 (   320 PWs)   bands (ev):

    -5.2846   6.4213   9.9034   9.9329

          k = 0.1677 0.1677-0.4941 (   320 PWs)   bands (ev):

    -5.2852   6.3312   9.9105  10.0404

          k =-0.6707-0.3353-0.9881 (   318 PWs)   bands (ev):

    -2.9457   4.8096   6.0046   8.9261

          k =-0.5030-0.1677-0.8235 (   315 PWs)   bands (ev):

    -0.2782   1.7353   5.5923   7.6049

          k = 0.5030 0.1677-0.8235 (   315 PWs)   bands (ev):

    -0.2383   1.6346   5.6569   7.6061

          k =-0.1677 0.5030-0.8235 (   315 PWs)   bands (ev):

    -0.2997   1.7813   5.6272   7.5368

          k = 0.3353 0.0000-0.6588 (   318 PWs)   bands (ev):

    -3.0851   4.9361   6.2732   8.6267

          k = 1.0060-0.3353 0.6588 (   322 PWs)   bands (ev):

    -2.9799   4.9581   6.1639   8.7667

          k = 0.8384-0.1677 0.4941 (   316 PWs)   bands (ev):

    -0.2559   1.8193   5.7036   7.5620

          k =-0.1677-0.8384 0.4941 (   316 PWs)   bands (ev):

    -0.1961   1.6660   5.8356   7.5280

          k =-0.3353-0.3353-0.9881 (   321 PWs)   bands (ev):

    -0.3596   2.4568   3.8271   9.0925

          k =-0.1677-0.1677-0.8235 (   320 PWs)   bands (ev):

    -1.4521   3.3605   5.6936   8.0936

          k = 0.1677 0.1677-0.8235 (   320 PWs)   bands (ev):

    -1.4465   3.2906   5.7699   8.0865

     highest occupied level (ev):    13.9126

!    total energy              =     -23.05549001 Ry
     estimated scf accuracy    <          1.1E-09 Ry

     The total energy is the sum of the following terms:
     one-electron contribution =       8.28992201 Ry
     hartree contribution      =       1.88755521 Ry
     xc contribution           =      -7.39537378 Ry
     ewald contribution        =     -25.83759345 Ry

     convergence has been achieved in   6 iterations

     Forces acting on atoms (cartesian axes, Ry/au):

     atom    1 type  1   force =     0.00834680    0.00834680   -0.01599507
     atom    2 type  1   force =    -0.00834680   -0.00834680    0.01599507

     Total force =     0.028113     Total SCF correction =     0.000002


     Computing stress (Cartesian axis) and pressure

          total   stress  (Ry/bohr**3)                   (kbar)     P=        5.26
   0.00043101   0.00004256  -0.00002547           63.40        6.26       -3.75
   0.00004256   0.00043101  -0.00002547            6.26       63.40       -3.75
  -0.00002547  -0.00002547  -0.00075482           -3.75       -3.75     -111.04


     BFGS Geometry Optimization
     Energy error            =      0.0E+00 Ry
     Gradient error          =      1.6E-02 Ry/Bohr

     number of scf cycles    =   1
     number of bfgs steps    =   0

     energy             new  =     -23.0554900123 Ry

     new trust radius        =       0.0198791476 bohr
     new conv_thr            =       0.0000000100 Ry


ATOMIC_POSITIONS (alat)
C             0.0012510197        0.0012510197       -0.0023973426
C             0.2487489803        0.2487489803        0.2523973426



     Writing config-only to output data dir ./Diamond.save/
     NEW-OLD atomic charge density approx. for the potential

     total cpu time spent up to now is       11.2 secs

     Self-consistent Calculation

     iteration #  1     ecut=    40.00 Ry     beta= 0.70
     CG style diagonalization
     c_bands:  1 eigenvalues not converged
     c_bands:  1 eigenvalues not converged
     c_bands:  2 eigenvalues not converged
     c_bands:  1 eigenvalues not converged
     c_bands:  1 eigenvalues not converged
     c_bands:  1 eigenvalues not converged
     ethr =  1.00E-06,  avg # of iterations =  7.0

     total cpu time spent up to now is       13.2 secs

     total energy              =     -23.05563002 Ry
     estimated scf accuracy    <       0.00008206 Ry

     iteration #  2     ecut=    40.00 Ry     beta= 0.70
     CG style diagonalization
     ethr =  1.03E-06,  avg # of iterations =  3.5

     total cpu time spent up to now is       14.4 secs

     total energy              =     -23.05563902 Ry
     estimated scf accuracy    <       0.00000141 Ry

     iteration #  3     ecut=    40.00 Ry     beta= 0.70
     CG style diagonalization
     ethr =  1.76E-08,  avg # of iterations =  3.8

     total cpu time spent up to now is       15.6 secs

     total energy              =     -23.05563944 Ry
     estimated scf accuracy    <       0.00000007 Ry

     iteration #  4     ecut=    40.00 Ry     beta= 0.70
     CG style diagonalization
     ethr =  8.63E-10,  avg # of iterations =  3.8

     total cpu time spent up to now is       16.8 secs

     End of self-consistent calculation

          k = 0.0000 0.0000 0.0000 (   331 PWs)   bands (ev):

    -8.0711  13.4486  13.6449  13.8606

          k =-0.1677 0.1677-0.1647 (   318 PWs)   bands (ev):

    -7.2896   9.8160  12.4420  12.7958

          k =-0.3353 0.3353-0.3294 (   314 PWs)   bands (ev):

    -4.9889   4.1289  11.0737  11.4916

          k = 0.5030-0.5030 0.4941 (   320 PWs)   bands (ev):

    -2.0444  -0.0713  10.5640  11.0152

          k = 0.0000 0.3353 0.0000 (   315 PWs)   bands (ev):

    -7.0171  10.8621  11.0107  11.5932

          k =-0.1677 0.5030-0.1647 (   317 PWs)   bands (ev):

    -5.2111   6.3010   9.6286  10.3243

          k = 0.6707-0.3353 0.6588 (   314 PWs)   bands (ev):

    -2.1144   1.3780   8.6692   9.5381

          k = 0.5030-0.1677 0.4941 (   319 PWs)   bands (ev):

    -3.2917   2.9820   7.9540  10.5566

          k = 0.3353-0.0000 0.3294 (   321 PWs)   bands (ev):

    -6.0133   7.9168   8.7843  12.2094

          k = 0.0000 0.6707 0.0000 (   319 PWs)   bands (ev):

    -3.9214   6.6479   8.0729   8.1446

          k = 0.8384-0.1677 0.8235 (   317 PWs)   bands (ev):

    -1.2497   3.4712   5.7582   7.7851

          k = 0.6707-0.0000 0.6588 (   314 PWs)   bands (ev):

    -0.4462   2.7254   4.0370   8.7632

          k = 0.0000-1.0060 0.0000 (   314 PWs)   bands (ev):

     0.9119   0.9353   7.0670   7.1028

          k = 0.0000 0.0000 0.3294 (   307 PWs)   bands (ev):

    -7.0548  11.0590  11.1365  11.2904

          k =-0.3353 0.3353 0.0000 (   317 PWs)   bands (ev):

    -5.9763   7.8288   8.5808  12.4782

          k = 0.5030-0.5030 0.8235 (   316 PWs)   bands (ev):

    -3.2241   2.8586   7.6882  10.8514

          k = 0.3353-0.3353 0.6588 (   315 PWs)   bands (ev):

    -2.2046   1.4589   8.3586   9.7960

          k = 0.1677-0.1677 0.4941 (   320 PWs)   bands (ev):

    -5.2847   6.3861   9.8778  10.0074

          k = 0.6707-0.3353 0.9881 (   318 PWs)   bands (ev):

    -2.9460   4.8402   6.0010   8.8925

          k = 0.5030-0.1677 0.8235 (   315 PWs)   bands (ev):

    -0.2659   1.7055   5.6074   7.6099

          k = 0.3353-0.0000 0.6588 (   318 PWs)   bands (ev):

    -3.0850   4.9498   6.2704   8.6140

          k =-1.0060-0.3353-0.6588 (   322 PWs)   bands (ev):

    -2.9797   4.9730   6.1601   8.7530

          k =-0.3353-1.0060 0.0000 (   312 PWs)   bands (ev):

     1.4709   1.5129   5.4718   5.5194

          k =-0.8384-0.1677-0.4941 (   316 PWs)   bands (ev):

    -0.2343   1.7670   5.7237   7.5774

          k = 0.0000-1.0060 0.3294 (   322 PWs)   bands (ev):

     1.4809   1.5134   5.5517   5.5927

          k = 0.0000 0.0000 0.6588 (   323 PWs)   bands (ev):

    -4.0660   6.2773   8.3129   8.3840

          k = 0.3353-0.3353 0.9881 (   321 PWs)   bands (ev):

    -0.3666   2.4788   3.8334   9.0654

          k = 0.1677-0.1677 0.8235 (   320 PWs)   bands (ev):

    -1.4496   3.3258   5.7530   8.0678

          k =-0.6707-1.0060 0.0000 (   312 PWs)   bands (ev):

     1.2579   1.3151   5.6619   5.7294

          k = 0.0000 0.0000-0.9881 (   318 PWs)   bands (ev):

     0.6117   0.6575   7.3247   7.3880

          k = 0.1677 0.1677 0.1647 (   318 PWs)   bands (ev):

    -7.2895   9.8378  12.5838  12.6253

          k =-0.1677-0.1677 0.1647 (   318 PWs)   bands (ev):

    -7.2892   9.9094  12.4728  12.6431

          k = 0.3353 0.3353 0.3294 (   314 PWs)   bands (ev):

    -4.9890   4.1433  11.2071  11.3414

          k =-0.3353-0.3353 0.3294 (   314 PWs)   bands (ev):

    -4.9889   4.1817  11.1240  11.3761

          k =-0.5030-0.5030-0.4941 (   320 PWs)   bands (ev):

    -2.0545  -0.0491  10.6983  10.8678

          k = 0.5030 0.5030-0.4941 (   320 PWs)   bands (ev):

    -2.0769   0.0042  10.6213  10.9082

          k = 0.1677 0.5030 0.1647 (   317 PWs)   bands (ev):

    -5.2111   6.3229   9.6620  10.2617

          k =-0.1677-0.5030 0.1647 (   317 PWs)   bands (ev):

    -5.2109   6.3695   9.6144  10.2543

          k = 0.5030-0.1677 0.1647 (   317 PWs)   bands (ev):

    -5.2113   6.2906   9.5878  10.3862

          k =-0.6707-0.3353-0.6588 (   314 PWs)   bands (ev):

    -2.1189   1.3967   8.6704   9.5207

          k = 0.6707 0.3353-0.6588 (   314 PWs)   bands (ev):

    -2.1283   1.4393   8.6652   9.4846

          k =-0.3353 0.6707-0.6588 (   314 PWs)   bands (ev):

    -2.1140   1.3748   8.7434   9.4647

          k =-0.5030-0.1677-0.4941 (   319 PWs)   bands (ev):

    -3.2926   2.9957   7.9421  10.5571

          k = 0.5030 0.1677-0.4941 (   319 PWs)   bands (ev):

    -3.2948   3.0364   7.9404  10.5040

          k =-0.1677 0.5030-0.4941 (   319 PWs)   bands (ev):

    -3.2918   2.9856   8.0094  10.4798

          k = 0.3353 0.0000-0.3294 (   321 PWs)   bands (ev):

    -6.0129   7.9752   8.7815  12.1232

          k =-0.8384-0.1677-0.8235 (   317 PWs)   bands (ev):

    -1.2519   3.4945   5.7355   7.7850

          k = 0.8384 0.1677-0.8235 (   317 PWs)   bands (ev):

    -1.2555   3.5235   5.7414   7.7481

          k =-0.1677 0.8384-0.8235 (   317 PWs)   bands (ev):

    -1.2489   3.4468   5.8233   7.7422

          k = 0.6707-0.0000-0.6588 (   314 PWs)   bands (ev):

    -0.4562   2.7583   4.0504   8.7161

          k = 0.3353 0.3353 0.0000 (   317 PWs)   bands (ev):

    -5.9756   7.9376   8.5703  12.3235

          k =-0.5030-0.5030-0.8235 (   316 PWs)   bands (ev):

    -3.2257   2.8802   7.7604  10.7260

          k = 0.5030 0.5030-0.8235 (   316 PWs)   bands (ev):

    -3.2279   2.9169   7.7092  10.7450

          k =-0.3353-0.3353-0.6588 (   315 PWs)   bands (ev):

    -2.2079   1.4703   8.4489   9.6900

          k = 0.3353 0.3353-0.6588 (   315 PWs)   bands (ev):

    -2.2168   1.5158   8.3860   9.7114

          k =-0.1677-0.1677-0.4941 (   320 PWs)   bands (ev):

    -5.2848   6.3844   9.7969  10.1007

          k = 0.1677 0.1677-0.4941 (   320 PWs)   bands (ev):

    -5.2845   6.4442   9.8115  10.0084

          k =-0.6707-0.3353-0.9881 (   318 PWs)   bands (ev):

    -2.9481   4.9273   5.9969   8.7893

          k =-0.5030-0.1677-0.8235 (   315 PWs)   bands (ev):

    -0.2790   1.7273   5.6809   7.5182

          k = 0.5030 0.1677-0.8235 (   315 PWs)   bands (ev):

    -0.3039   1.7929   5.6388   7.5156

          k =-0.1677 0.5030-0.8235 (   315 PWs)   bands (ev):

    -0.2671   1.7027   5.6598   7.5565

          k = 0.3353 0.0000-0.6588 (   318 PWs)   bands (ev):

    -3.0857   4.9960   6.2704   8.5574

          k = 1.0060-0.3353 0.6588 (   322 PWs)   bands (ev):

    -2.9806   5.0195   6.1605   8.6946

          k = 0.8384-0.1677 0.4941 (   316 PWs)   bands (ev):

    -0.2247   1.7351   5.8218   7.4953

          k =-0.1677-0.8384 0.4941 (   316 PWs)   bands (ev):

    -0.2606   1.8291   5.7445   7.5109

          k =-0.3353-0.3353-0.9881 (   321 PWs)   bands (ev):

    -0.3891   2.5413   3.8572   8.9812

          k =-0.1677-0.1677-0.8235 (   320 PWs)   bands (ev):

    -1.4500   3.3039   5.8429   7.9952

          k = 0.1677 0.1677-0.8235 (   320 PWs)   bands (ev):

    -1.4537   3.3494   5.7930   7.9999

     highest occupied level (ev):    13.8606

!    total energy              =     -23.05563946 Ry
     estimated scf accuracy    <          4.8E-10 Ry

     The total energy is the sum of the following terms:
     one-electron contribution =       8.29018247 Ry
     hartree contribution      =       1.88748513 Ry
     xc contribution           =      -7.39535938 Ry
     ewald contribution        =     -25.83794768 Ry

     convergence has been achieved in   4 iterations

     Forces acting on atoms (cartesian axes, Ry/au):

     atom    1 type  1   force =    -0.00527350   -0.00527350    0.00941741
     atom    2 type  1   force =     0.00527350    0.00527350   -0.00941741

     Total force =     0.016989     Total SCF correction =     0.000022


     Computing stress (Cartesian axis) and pressure

          total   stress  (Ry/bohr**3)                   (kbar)     P=        4.98
   0.00042886  -0.00002372   0.00001369           63.09       -3.49        2.01
  -0.00002372   0.00042886   0.00001369           -3.49       63.09        2.01
   0.00001369   0.00001369  -0.00075619            2.01        2.01     -111.24

     Energy error            =      1.5E-04 Ry
     Gradient error          =      9.4E-03 Ry/Bohr

     number of scf cycles    =   2
     number of bfgs steps    =   1

     energy             old  =     -23.0554900123 Ry
     energy             new  =     -23.0556394554 Ry

     CASE: energy            _new < energy            _old

     new trust radius        =       0.0074862843 bohr
     new conv_thr            =       0.0000000001 Ry


ATOMIC_POSITIONS (alat)
C             0.0007584436        0.0007584436       -0.0015177275
C             0.2492415564        0.2492415564        0.2515177275



     Writing config-only to output data dir ./Diamond.save/
     NEW-OLD atomic charge density approx. for the potential

     total cpu time spent up to now is       17.3 secs

     Self-consistent Calculation

     iteration #  1     ecut=    40.00 Ry     beta= 0.70
     CG style diagonalization
     c_bands:  1 eigenvalues not converged
     c_bands:  1 eigenvalues not converged
     ethr =  1.00E-06,  avg # of iterations =  5.6

     total cpu time spent up to now is       19.0 secs

     total energy              =     -23.05573000 Ry
     estimated scf accuracy    <       0.00001152 Ry

     iteration #  2     ecut=    40.00 Ry     beta= 0.70
     CG style diagonalization
     ethr =  1.44E-07,  avg # of iterations =  3.7

     total cpu time spent up to now is       20.2 secs

     total energy              =     -23.05573186 Ry
     estimated scf accuracy    <       0.00000019 Ry

     iteration #  3     ecut=    40.00 Ry     beta= 0.70
     CG style diagonalization
     ethr =  2.42E-09,  avg # of iterations =  3.8

     total cpu time spent up to now is       21.4 secs

     total energy              =     -23.05573192 Ry
     estimated scf accuracy    <       0.00000001 Ry

     iteration #  4     ecut=    40.00 Ry     beta= 0.70
     CG style diagonalization
     ethr =  1.25E-10,  avg # of iterations =  3.7

     total cpu time spent up to now is       22.6 secs

     End of self-consistent calculation

          k = 0.0000 0.0000 0.0000 (   331 PWs)   bands (ev):

    -8.0709  13.4636  13.7429  13.7469

          k =-0.1677 0.1677-0.1647 (   318 PWs)   bands (ev):

    -7.2893   9.8453  12.4878  12.7125

          k =-0.3353 0.3353-0.3294 (   314 PWs)   bands (ev):

    -4.9887   4.1457  11.1215  11.4235

          k = 0.5030-0.5030 0.4941 (   320 PWs)   bands (ev):

    -2.0546  -0.0472  10.6135  10.9501

          k = 0.0000 0.3353 0.0000 (   315 PWs)   bands (ev):

    -7.0170  10.8686  11.0168  11.5810

          k =-0.1677 0.5030-0.1647 (   317 PWs)   bands (ev):

    -5.2109   6.3211   9.6256  10.3045

          k = 0.6707-0.3353 0.6588 (   314 PWs)   bands (ev):

    -2.1185   1.3970   8.6894   9.5001

          k = 0.5030-0.1677 0.4941 (   319 PWs)   bands (ev):

    -3.2924   2.9998   7.9623  10.5240

          k = 0.3353-0.0000 0.3294 (   321 PWs)   bands (ev):

    -6.0129   7.9466   8.7833  12.1659

          k = 0.0000 0.6707 0.0000 (   319 PWs)   bands (ev):

    -3.9211   6.6507   8.0788   8.1360

          k = 0.8384-0.1677 0.8235 (   317 PWs)   bands (ev):

    -1.2511   3.4842   5.7647   7.7649

          k = 0.6707-0.0000 0.6588 (   314 PWs)   bands (ev):

    -0.4506   2.7420   4.0436   8.7396

          k = 0.0000-1.0060 0.0000 (   314 PWs)   bands (ev):

     0.9239   0.9243   7.0843   7.0849

          k = 0.0000 0.0000 0.3294 (   307 PWs)   bands (ev):

    -7.0547  11.1104  11.1124  11.2641

          k =-0.3353 0.3353 0.0000 (   317 PWs)   bands (ev):

    -5.9758   7.8829   8.5755  12.4022

          k = 0.5030-0.5030 0.8235 (   316 PWs)   bands (ev):

    -3.2252   2.8784   7.7113  10.7945

          k = 0.3353-0.3353 0.6588 (   315 PWs)   bands (ev):

    -2.2081   1.4758   8.3880   9.7489

          k = 0.1677-0.1677 0.4941 (   320 PWs)   bands (ev):

    -5.2845   6.4004   9.8497  10.0226

          k = 0.6707-0.3353 0.9881 (   318 PWs)   bands (ev):

    -2.9467   4.8833   5.9990   8.8419

          k = 0.5030-0.1677 0.8235 (   315 PWs)   bands (ev):

    -0.2784   1.7317   5.6463   7.5510

          k = 0.3353-0.0000 0.6588 (   318 PWs)   bands (ev):

    -3.0851   4.9729   6.2711   8.5855

          k =-1.0060-0.3353-0.6588 (   322 PWs)   bands (ev):

    -2.9799   4.9967   6.1605   8.7235

          k =-0.3353-1.0060 0.0000 (   312 PWs)   bands (ev):

     1.4920   1.4928   5.4950   5.4958

          k =-0.8384-0.1677-0.4941 (   316 PWs)   bands (ev):

    -0.2357   1.7668   5.7772   7.5204

          k = 0.0000-1.0060 0.3294 (   322 PWs)   bands (ev):

     1.4975   1.4981   5.5715   5.5722

          k = 0.0000 0.0000 0.6588 (   323 PWs)   bands (ev):

    -4.0658   6.2782   8.3476   8.3490

          k = 0.3353-0.3353 0.9881 (   321 PWs)   bands (ev):

    -0.3772   2.5097   3.8449   9.0243

          k = 0.1677-0.1677 0.8235 (   320 PWs)   bands (ev):

    -1.4504   3.3264   5.7850   8.0334

          k =-0.6707-1.0060 0.0000 (   312 PWs)   bands (ev):

     1.2862   1.2873   5.6950   5.6964

          k = 0.0000 0.0000-0.9881 (   318 PWs)   bands (ev):

     0.6344   0.6353   7.3559   7.3572

          k = 0.1677 0.1677 0.1647 (   318 PWs)   bands (ev):

    -7.2893   9.8458  12.4903  12.7093

          k =-0.1677-0.1677 0.1647 (   318 PWs)   bands (ev):

    -7.2893   9.8470  12.4884  12.7096

          k = 0.3353 0.3353 0.3294 (   314 PWs)   bands (ev):

    -4.9887   4.1460  11.1239  11.4207

          k =-0.3353-0.3353 0.3294 (   314 PWs)   bands (ev):

    -4.9887   4.1467  11.1225  11.4213

          k =-0.5030-0.5030-0.4941 (   320 PWs)   bands (ev):

    -2.0548  -0.0466  10.6159  10.9473

          k = 0.5030 0.5030-0.4941 (   320 PWs)   bands (ev):

    -2.0552  -0.0457  10.6146  10.9480

          k = 0.1677 0.5030 0.1647 (   317 PWs)   bands (ev):

    -5.2109   6.3216   9.6263  10.3031

          k =-0.1677-0.5030 0.1647 (   317 PWs)   bands (ev):

    -5.2109   6.3224   9.6254  10.3031

          k = 0.5030-0.1677 0.1647 (   317 PWs)   bands (ev):

    -5.2109   6.3209   9.6248  10.3056

          k =-0.6707-0.3353-0.6588 (   314 PWs)   bands (ev):

    -2.1186   1.3974   8.6893   9.4998

          k = 0.6707 0.3353-0.6588 (   314 PWs)   bands (ev):

    -2.1187   1.3981   8.6892   9.4992

          k =-0.3353 0.6707-0.6588 (   314 PWs)   bands (ev):

    -2.1185   1.3969   8.6906   9.4989

          k =-0.5030-0.1677-0.4941 (   319 PWs)   bands (ev):

    -3.2925   3.0001   7.9620  10.5240

          k = 0.5030 0.1677-0.4941 (   319 PWs)   bands (ev):

    -3.2925   3.0008   7.9620  10.5231

          k =-0.1677 0.5030-0.4941 (   319 PWs)   bands (ev):

    -3.2924   2.9999   7.9633  10.5227

          k = 0.3353 0.0000-0.3294 (   321 PWs)   bands (ev):

    -6.0129   7.9477   8.7832  12.1645

          k =-0.8384-0.1677-0.8235 (   317 PWs)   bands (ev):

    -1.2511   3.4847   5.7641   7.7649

          k = 0.8384 0.1677-0.8235 (   317 PWs)   bands (ev):

    -1.2512   3.4852   5.7642   7.7643

          k =-0.1677 0.8384-0.8235 (   317 PWs)   bands (ev):

    -1.2511   3.4837   5.7658   7.7642

          k = 0.6707-0.0000-0.6588 (   314 PWs)   bands (ev):

    -0.4508   2.7426   4.0438   8.7388

          k = 0.3353 0.3353 0.0000 (   317 PWs)   bands (ev):

    -5.9758   7.8852   8.5752  12.3991

          k =-0.5030-0.5030-0.8235 (   316 PWs)   bands (ev):

    -3.2252   2.8789   7.7126  10.7921

          k = 0.5030 0.5030-0.8235 (   316 PWs)   bands (ev):

    -3.2253   2.8795   7.7117  10.7924

          k =-0.3353-0.3353-0.6588 (   315 PWs)   bands (ev):

    -2.2082   1.4761   8.3897   9.7469

          k = 0.3353 0.3353-0.6588 (   315 PWs)   bands (ev):

    -2.2083   1.4769   8.3886   9.7472

          k =-0.1677-0.1677-0.4941 (   320 PWs)   bands (ev):

    -5.2845   6.4004   9.8479  10.0246

          k = 0.1677 0.1677-0.4941 (   320 PWs)   bands (ev):

    -5.2845   6.4015   9.8481  10.0231

          k =-0.6707-0.3353-0.9881 (   318 PWs)   bands (ev):

    -2.9468   4.8850   5.9989   8.8398

          k =-0.5030-0.1677-0.8235 (   315 PWs)   bands (ev):

    -0.2787   1.7323   5.6477   7.5493

          k = 0.5030 0.1677-0.8235 (   315 PWs)   bands (ev):

    -0.2791   1.7334   5.6470   7.5492

          k =-0.1677 0.5030-0.8235 (   315 PWs)   bands (ev):

    -0.2784   1.7317   5.6472   7.5501

          k = 0.3353 0.0000-0.6588 (   318 PWs)   bands (ev):

    -3.0851   4.9737   6.2711   8.5846

          k = 1.0060-0.3353 0.6588 (   322 PWs)   bands (ev):

    -2.9799   4.9975   6.1605   8.7225

          k = 0.8384-0.1677 0.4941 (   316 PWs)   bands (ev):

    -0.2355   1.7661   5.7792   7.5189

          k =-0.1677-0.8384 0.4941 (   316 PWs)   bands (ev):

    -0.2362   1.7679   5.7776   7.5193

          k =-0.3353-0.3353-0.9881 (   321 PWs)   bands (ev):

    -0.3777   2.5110   3.8454   9.0226

          k =-0.1677-0.1677-0.8235 (   320 PWs)   bands (ev):

    -1.4504   3.3260   5.7867   8.0320

          k = 0.1677 0.1677-0.8235 (   320 PWs)   bands (ev):

    -1.4505   3.3268   5.7858   8.0321

     highest occupied level (ev):    13.7469

!    total energy              =     -23.05573193 Ry
     estimated scf accuracy    <          4.2E-11 Ry

     The total energy is the sum of the following terms:
     one-electron contribution =       8.29035506 Ry
     hartree contribution      =       1.88741377 Ry
     xc contribution           =      -7.39534114 Ry
     ewald contribution        =     -25.83815961 Ry

     convergence has been achieved in   4 iterations

     Forces acting on atoms (cartesian axes, Ry/au):

     atom    1 type  1   force =    -0.00009067   -0.00009067    0.00018706
     atom    2 type  1   force =     0.00009067    0.00009067   -0.00018706

     Total force =     0.000321     Total SCF correction =     0.000008


     Computing stress (Cartesian axis) and pressure

          total   stress  (Ry/bohr**3)                   (kbar)     P=        4.70
   0.00042682  -0.00000041   0.00000021           62.79       -0.06        0.03
  -0.00000041   0.00042682   0.00000021           -0.06       62.79        0.03
   0.00000021   0.00000021  -0.00075786            0.03        0.03     -111.49

     Energy error            =      9.2E-05 Ry
     Gradient error          =      1.9E-04 Ry/Bohr

     bfgs converged in   3 scf cycles and   2 bfgs steps
     (criteria: energy <  1.0E-04 Ry, force <  1.0E-03 Ry/Bohr)

     End of BFGS Geometry Optimization

     Final energy             =     -23.0557319258 Ry

     File ./Diamond.bfgs deleted, as requested
Begin final coordinates

ATOMIC_POSITIONS (alat)
C             0.0007584436        0.0007584436       -0.0015177275
C             0.2492415564        0.2492415564        0.2515177275
End final coordinates



     Writing all to output data dir ./Diamond.save/
 
     init_run     :      0.77s CPU      1.27s WALL (       1 calls)
     electrons    :     15.42s CPU     18.71s WALL (       3 calls)
     update_pot   :      0.02s CPU      0.03s WALL (       2 calls)
     forces       :      0.13s CPU      0.24s WALL (       3 calls)
     stress       :      0.69s CPU      0.74s WALL (       3 calls)

     Called by init_run:
     wfcinit      :      0.45s CPU      0.61s WALL (       1 calls)
     potinit      :      0.00s CPU      0.06s WALL (       1 calls)
     hinit0       :      0.30s CPU      0.43s WALL (       1 calls)

     Called by electrons:
     c_bands      :     13.74s CPU     16.83s WALL (      14 calls)
     sum_band     :      1.57s CPU      1.66s WALL (      14 calls)
     v_of_rho     :      0.04s CPU      0.07s WALL (      17 calls)
     newd         :      0.06s CPU      0.08s WALL (      17 calls)
     mix_rho      :      0.01s CPU      0.01s WALL (      14 calls)

     Called by c_bands:
     init_us_2    :      0.46s CPU      0.57s WALL (    2380 calls)
     init_us_2:cp :      0.43s CPU      0.53s WALL (    2380 calls)
     ccgdiagg     :     10.87s CPU     12.17s WALL (     952 calls)
     wfcrot       :      2.70s CPU      3.01s WALL (     816 calls)

     Called by *cgdiagg:
     h_psi        :     11.14s CPU     12.33s WALL (   13629 calls)
     s_psi        :      0.51s CPU      0.61s WALL (   26442 calls)

     Called by h_psi:
     h_psi:calbec :      0.46s CPU      0.53s WALL (   13629 calls)
     vloc_psi     :      9.87s CPU     10.89s WALL (   13629 calls)
     add_vuspsi   :      0.28s CPU      0.33s WALL (   13629 calls)
     hs_1psi      :      9.57s CPU     10.67s WALL (   12813 calls)
     s_1psi       :      0.85s CPU      0.96s WALL (   12813 calls)

     General routines
     calbec       :      0.57s CPU      0.68s WALL (   28414 calls)
     fft          :      0.03s CPU      0.07s WALL (      94 calls)
     ffts         :      0.00s CPU      0.00s WALL (      14 calls)
     fftw         :     10.05s CPU     11.04s WALL (   36506 calls)
 
     Parallel routines
 
     PWSCF        :     17.51s CPU     23.86s WALL

 
   This run was terminated on:  23:24:26  14Mar2022            

=------------------------------------------------------------------------------=
   JOB DONE.
=------------------------------------------------------------------------------=
