
     Program PWSCF v.7.0 starts on 14Mar2022 at 19: 5:22 

     This program is part of the open-source Quantum ESPRESSO suite
     for quantum simulation of materials; please cite
         "P. Giannozzi et al., J. Phys.:Condens. Matter 21 395502 (2009);
         "P. Giannozzi et al., J. Phys.:Condens. Matter 29 465901 (2017);
         "P. Giannozzi et al., J. Chem. Phys. 152 154105 (2020);
          URL http://www.quantum-espresso.org", 
     in publications or presentations arising from this work. More details at
     http://www.quantum-espresso.org/quote

     Parallel version (MPI), running on     1 processors

     MPI processes distributed on     1 nodes
     90090 MiB available memory on the printing compute node when the environment starts
 
     Waiting for input...
     Reading input from standard input
Warning: card &CELL ignored
Warning: card  CELL_DYNAMICS = 'BFGS', ignored
Warning: card  PRESS=0.1D0, ignored
Warning: card / ignored
     Message from routine read_cards :
     DEPRECATED: no units specified in ATOMIC_POSITIONS card
     Message from routine read_cards :
     ATOMIC_POSITIONS: units set to alat

     Current dimensions of program PWSCF are:
     Max number of different atomic species (ntypx) = 10
     Max number of k-points (npk) =  40000
     Max angular momentum in pseudopotentials (lmaxx) =  4
     Message from routine setup:
     using ibrav=0 with symmetry is DISCOURAGED, use correct ibrav instead

     Subspace diagonalization in iterative solution of the eigenvalue problem:
     a serial algorithm will be used

 
     G-vector sticks info
     --------------------
     sticks:   dense  smooth     PW     G-vecs:    dense   smooth      PW
     Sum         253     253     85                 2637     2637     531
 
     Using Slab Decomposition
 


     bravais-lattice index     =            0
     lattice parameter (alat)  =       6.6780  a.u.
     unit-cell volume          =      74.0067 (a.u.)^3
     number of atoms/cell      =            2
     number of atomic types    =            1
     number of electrons       =         8.00
     number of Kohn-Sham states=            4
     kinetic-energy cutoff     =      40.0000  Ry
     charge density cutoff     =     160.0000  Ry
     scf convergence threshold =      1.0E-08
     mixing beta               =       0.7000
     number of iterations used =            8  plain     mixing
     energy convergence thresh.=      1.0E-04
     force convergence thresh. =      1.0E-03
     Exchange-correlation= SLA  PZ   NOGX NOGC
                           (   1   1   0   0   0   0   0)
     nstep                     =           50


     celldm(1)=   6.678000  celldm(2)=   0.000000  celldm(3)=   0.000000
     celldm(4)=   0.000000  celldm(5)=   0.000000  celldm(6)=   0.000000

     crystal axes: (cart. coord. in units of alat)
               a(1) = (  -0.499000   0.000000   0.499000 )  
               a(2) = (   0.000000   0.499000   0.499000 )  
               a(3) = (  -0.499000   0.499000   0.000000 )  

     reciprocal axes: (cart. coord. in units 2 pi/alat)
               b(1) = ( -1.002004 -1.002004  1.002004 )  
               b(2) = (  1.002004  1.002004  1.002004 )  
               b(3) = ( -1.002004  1.002004 -1.002004 )  


     PseudoPot. # 1 for C  read from file:
     ./C_LDA.UPF
     MD5 check sum: 407c1fe918d93b14b177d5600f28733c
     Pseudo is Ultrasoft + core correction, Zval =  4.0
     Generated by new atomic code, or converted to UPF format
     Using radial grid of  721 points,  4 beta functions with: 
                l(1) =   0
                l(2) =   0
                l(3) =   1
                l(4) =   1
     Q(r) pseudized with  8 coefficients,  rinner =    1.100   1.100   1.100


     atomic species   valence    mass     pseudopotential
        C              4.00    12.01100     C ( 1.00)

      6 Sym. Ops. (no inversion) found



   Cartesian axes

     site n.     atom                  positions (alat units)
         1           C   tau(   1) = (   0.0000000   0.0000000   0.0000000  )
         2           C   tau(   2) = (   0.2500000   0.2500000   0.2500000  )

     number of k points=    32
                       cart. coord. in units 2pi/alat
        k(    1) = (   0.0000000   0.0000000   0.0000000), wk =   0.0092593
        k(    2) = (  -0.1670007   0.1670007  -0.1670007), wk =   0.0555556
        k(    3) = (  -0.3340013   0.3340013  -0.3340013), wk =   0.0555556
        k(    4) = (   0.5010020  -0.5010020   0.5010020), wk =   0.0277778
        k(    5) = (   0.0000000   0.3340013   0.0000000), wk =   0.0555556
        k(    6) = (  -0.1670007   0.5010020  -0.1670007), wk =   0.0555556
        k(    7) = (   0.6680027  -0.3340013   0.6680027), wk =   0.0555556
        k(    8) = (   0.5010020  -0.1670007   0.5010020), wk =   0.0555556
        k(    9) = (   0.3340013  -0.0000000   0.3340013), wk =   0.0555556
        k(   10) = (   0.0000000   0.6680027   0.0000000), wk =   0.0555556
        k(   11) = (   0.8350033  -0.1670007   0.8350033), wk =   0.0555556
        k(   12) = (   0.6680027  -0.0000000   0.6680027), wk =   0.0555556
        k(   13) = (   0.0000000  -1.0020040   0.0000000), wk =   0.0277778
        k(   14) = (   0.6680027  -0.3340013   1.0020040), wk =   0.1111111
        k(   15) = (   0.5010020  -0.1670007   0.8350033), wk =   0.1111111
        k(   16) = (  -0.3340013  -1.0020040   0.0000000), wk =   0.1111111
        k(   17) = (  -0.1670007  -0.1670007  -0.1670007), wk =   0.0185185
        k(   18) = (  -0.3340013  -0.3340013  -0.3340013), wk =   0.0185185
        k(   19) = (   0.5010020   0.5010020   0.5010020), wk =   0.0092593
        k(   20) = (   0.5010020   0.1670007  -0.1670007), wk =   0.1111111
        k(   21) = (  -0.5010020  -0.1670007  -0.1670007), wk =   0.0555556
        k(   22) = (  -0.3340013  -0.6680027   0.6680027), wk =   0.1111111
        k(   23) = (   0.3340013   0.6680027   0.6680027), wk =   0.0555556
        k(   24) = (  -0.1670007  -0.5010020   0.5010020), wk =   0.1111111
        k(   25) = (   0.1670007   0.5010020   0.5010020), wk =   0.0555556
        k(   26) = (  -0.0000000  -0.3340013   0.3340013), wk =   0.0555556
        k(   27) = (  -0.1670007  -0.8350033   0.8350033), wk =   0.1111111
        k(   28) = (   0.1670007   0.8350033   0.8350033), wk =   0.0555556
        k(   29) = (  -0.0000000  -0.6680027   0.6680027), wk =   0.0555556
        k(   30) = (  -0.3340013  -0.6680027   1.0020040), wk =   0.1111111
        k(   31) = (   0.1670007   0.5010020   0.8350033), wk =   0.0555556
        k(   32) = (  -0.8350033  -0.1670007   0.5010020), wk =   0.0555556

     Dense  grid:     2637 G-vectors     FFT dimensions: (  20,  20,  20)

     Estimated max dynamical RAM per process >       4.66 MB

     Initial potential from superposition of free atoms

     starting charge       7.9999, renormalised to       8.0000
     Starting wfcs are    8 randomized atomic wfcs

     total cpu time spent up to now is        0.9 secs

     Self-consistent Calculation

     iteration #  1     ecut=    40.00 Ry     beta= 0.70
     CG style diagonalization
     ethr =  1.00E-02,  avg # of iterations =  3.0

     total cpu time spent up to now is        1.4 secs

     total energy              =     -23.03918987 Ry
     estimated scf accuracy    <       0.14263683 Ry

     iteration #  2     ecut=    40.00 Ry     beta= 0.70
     CG style diagonalization
     ethr =  1.78E-03,  avg # of iterations =  3.5

     total cpu time spent up to now is        2.0 secs

     total energy              =     -23.05571110 Ry
     estimated scf accuracy    <       0.00147660 Ry

     iteration #  3     ecut=    40.00 Ry     beta= 0.70
     CG style diagonalization
     ethr =  1.85E-05,  avg # of iterations =  4.0

     total cpu time spent up to now is        2.6 secs

     total energy              =     -23.05621762 Ry
     estimated scf accuracy    <       0.00004557 Ry

     iteration #  4     ecut=    40.00 Ry     beta= 0.70
     CG style diagonalization
     ethr =  5.70E-07,  avg # of iterations =  4.1

     total cpu time spent up to now is        3.2 secs

     total energy              =     -23.05623445 Ry
     estimated scf accuracy    <       0.00000203 Ry

     iteration #  5     ecut=    40.00 Ry     beta= 0.70
     CG style diagonalization
     ethr =  2.54E-08,  avg # of iterations =  4.0

     total cpu time spent up to now is        3.8 secs

     total energy              =     -23.05623514 Ry
     estimated scf accuracy    <       0.00000001 Ry

     iteration #  6     ecut=    40.00 Ry     beta= 0.70
     CG style diagonalization
     ethr =  1.86E-10,  avg # of iterations =  4.6

     total cpu time spent up to now is        4.5 secs

     End of self-consistent calculation

          k = 0.0000 0.0000 0.0000 (   331 PWs)   bands (ev):

    -8.0561  13.6816  13.6816  13.7652

          k =-0.1670 0.1670-0.1670 (   320 PWs)   bands (ev):

    -7.2730   9.8871  12.6270  12.6902

          k =-0.3340 0.3340-0.3340 (   308 PWs)   bands (ev):

    -4.9676   4.1764  11.2967  11.3556

          k = 0.5010-0.5010 0.5010 (   332 PWs)   bands (ev):

    -2.0197  -0.0326  10.8039  10.8627

          k = 0.0000 0.3340 0.0000 (   307 PWs)   bands (ev):

    -7.0127  11.0321  11.0594  11.5358

          k =-0.1670 0.5010-0.1670 (   322 PWs)   bands (ev):

    -5.2150   6.3798   9.7328  10.2862

          k = 0.6680-0.3340 0.6680 (   321 PWs)   bands (ev):

    -2.1180   1.4447   8.6660   9.6013

          k = 0.5010-0.1670 0.5010 (   314 PWs)   bands (ev):

    -3.2446   2.9888   7.9427  10.6406

          k = 0.3340-0.0000 0.3340 (   317 PWs)   bands (ev):

    -5.9815   7.9887   8.7541  12.2764

          k = 0.0000 0.6680 0.0000 (   323 PWs)   bands (ev):

    -3.9463   6.5750   8.2167   8.2367

          k = 0.8350-0.1670 0.8350 (   318 PWs)   bands (ev):

    -1.2874   3.4660   5.8211   7.8813

          k = 0.6680-0.0000 0.6680 (   323 PWs)   bands (ev):

    -0.3943   2.7105   4.0068   8.8648

          k = 0.0000-1.0020 0.0000 (   326 PWs)   bands (ev):

     0.8554   0.8676   7.2022   7.2199

          k = 0.6680-0.3340 1.0020 (   318 PWs)   bands (ev):

    -2.9782   4.9853   6.1786   8.7699

          k = 0.5010-0.1670 0.8350 (   318 PWs)   bands (ev):

    -0.2228   1.7615   5.7495   7.5609

          k =-0.3340-1.0020 0.0000 (   308 PWs)   bands (ev):

     1.4561   1.4729   5.6073   5.6274

          k =-0.1670-0.1670-0.1670 (   320 PWs)   bands (ev):

    -7.2728   9.9218  12.6362  12.6362

          k =-0.3340-0.3340-0.3340 (   308 PWs)   bands (ev):

    -4.9675   4.1955  11.3144  11.3144

          k = 0.5010 0.5010 0.5010 (   332 PWs)   bands (ev):

    -2.0312  -0.0057  10.8244  10.8244

          k = 0.5010 0.1670-0.1670 (   322 PWs)   bands (ev):

    -5.2149   6.3856   9.7604  10.2476

          k =-0.5010-0.1670-0.1670 (   322 PWs)   bands (ev):

    -5.2148   6.4087   9.7402  10.2407

          k =-0.3340-0.6680 0.6680 (   321 PWs)   bands (ev):

    -2.1182   1.4464   8.6337   9.6334

          k = 0.3340 0.6680 0.6680 (   321 PWs)   bands (ev):

    -2.1228   1.4675   8.6345   9.6121

          k =-0.1670-0.5010 0.5010 (   314 PWs)   bands (ev):

    -3.2445   2.9869   7.9168  10.6775

          k = 0.1670 0.5010 0.5010 (   314 PWs)   bands (ev):

    -3.2456   3.0070   7.9171  10.6501

          k =-0.0000-0.3340 0.3340 (   317 PWs)   bands (ev):

    -5.9817   7.9585   8.7569  12.3192

          k =-0.1670-0.8350 0.8350 (   318 PWs)   bands (ev):

    -1.2878   3.4783   5.7893   7.9020

          k = 0.1670 0.8350 0.8350 (   318 PWs)   bands (ev):

    -1.2895   3.4920   5.7930   7.8836

          k =-0.0000-0.6680 0.6680 (   323 PWs)   bands (ev):

    -0.3889   2.6936   4.0005   8.8882

          k =-0.3340-0.6680 1.0020 (   318 PWs)   bands (ev):

    -2.9786   5.0091   6.1778   8.7414

          k = 0.1670 0.5010 0.8350 (   318 PWs)   bands (ev):

    -0.2358   1.7945   5.7305   7.5578

          k =-0.8350-0.1670 0.5010 (   318 PWs)   bands (ev):

    -0.2223   1.7632   5.7201   7.5907

     highest occupied level (ev):    13.7652

!    total energy              =     -23.05623516 Ry
     estimated scf accuracy    <          7.8E-11 Ry

     The total energy is the sum of the following terms:
     one-electron contribution =       8.32401126 Ry
     hartree contribution      =       1.88521756 Ry
     xc contribution           =      -7.40101601 Ry
     ewald contribution        =     -25.86444796 Ry

     convergence has been achieved in   6 iterations

     Forces acting on atoms (cartesian axes, Ry/au):

     atom    1 type  1   force =     0.00267982    0.00267982    0.00267982
     atom    2 type  1   force =    -0.00267982   -0.00267982   -0.00267982

     Total force =     0.006564     Total SCF correction =     0.000001


     Computing stress (Cartesian axis) and pressure

          total   stress  (Ry/bohr**3)                   (kbar)     P=       19.66
   0.00013364  -0.00000749  -0.00000749           19.66       -1.10       -1.10
  -0.00000749   0.00013364  -0.00000749           -1.10       19.66       -1.10
  -0.00000749  -0.00000749   0.00013364           -1.10       -1.10       19.66


     BFGS Geometry Optimization
     Energy error            =      0.0E+00 Ry
     Gradient error          =      2.7E-03 Ry/Bohr

     number of scf cycles    =   1
     number of bfgs steps    =   0

     energy             new  =     -23.0562351566 Ry

     new trust radius        =       0.0046415921 bohr
     new conv_thr            =       0.0000000100 Ry


ATOMIC_POSITIONS (alat)
C             0.0004012915        0.0004012915        0.0004012915
C             0.2495987085        0.2495987085        0.2495987085



     Writing config-only to output data dir ./Diamond.save/
     NEW-OLD atomic charge density approx. for the potential

     total cpu time spent up to now is        4.8 secs

     Self-consistent Calculation

     iteration #  1     ecut=    40.00 Ry     beta= 0.70
     CG style diagonalization
     ethr =  1.00E-06,  avg # of iterations =  4.5

     Threshold (ethr) on eigenvalues was too large:
     Diagonalizing with lowered threshold

     CG style diagonalization
     ethr =  5.48E-08,  avg # of iterations =  2.8

     total cpu time spent up to now is        6.0 secs

     total energy              =     -23.05624319 Ry
     estimated scf accuracy    <       0.00000437 Ry

     iteration #  2     ecut=    40.00 Ry     beta= 0.70
     CG style diagonalization
     ethr =  5.47E-08,  avg # of iterations =  3.4

     total cpu time spent up to now is        6.5 secs

     total energy              =     -23.05624362 Ry
     estimated scf accuracy    <       0.00000008 Ry

     iteration #  3     ecut=    40.00 Ry     beta= 0.70
     CG style diagonalization
     ethr =  9.83E-10,  avg # of iterations =  3.8

     total cpu time spent up to now is        7.1 secs

     End of self-consistent calculation

          k = 0.0000 0.0000 0.0000 (   331 PWs)   bands (ev):

    -8.0561  13.6757  13.7263  13.7263

          k =-0.1670 0.1670-0.1670 (   320 PWs)   bands (ev):

    -7.2729   9.9011  12.6305  12.6686

          k =-0.3340 0.3340-0.3340 (   308 PWs)   bands (ev):

    -4.9675   4.1841  11.3036  11.3392

          k = 0.5010-0.5010 0.5010 (   332 PWs)   bands (ev):

    -2.0243  -0.0218  10.8119  10.8475

          k = 0.0000 0.3340 0.0000 (   307 PWs)   bands (ev):

    -7.0127  11.0372  11.0555  11.5346

          k =-0.1670 0.5010-0.1670 (   322 PWs)   bands (ev):

    -5.2149   6.3960   9.7586  10.2362

          k = 0.6680-0.3340 0.6680 (   321 PWs)   bands (ev):

    -2.1201   1.4552   8.6277   9.6310

          k = 0.5010-0.1670 0.5010 (   314 PWs)   bands (ev):

    -3.2449   2.9945   7.9117  10.6738

          k = 0.3340-0.0000 0.3340 (   317 PWs)   bands (ev):

    -5.9817   7.9644   8.7565  12.3105

          k = 0.0000 0.6680 0.0000 (   323 PWs)   bands (ev):

    -3.9463   6.5751   8.2207   8.2325

          k = 0.8350-0.1670 0.8350 (   318 PWs)   bands (ev):

    -1.2886   3.4863   5.7843   7.8988

          k = 0.6680-0.0000 0.6680 (   323 PWs)   bands (ev):

    -0.3900   2.6969   4.0018   8.8834

          k = 0.0000-1.0020 0.0000 (   326 PWs)   bands (ev):

     0.8578   0.8652   7.2057   7.2163

          k = 0.6680-0.3340 1.0020 (   318 PWs)   bands (ev):

    -2.9785   5.0044   6.1778   8.7470

          k = 0.5010-0.1670 0.8350 (   318 PWs)   bands (ev):

    -0.2278   1.7754   5.7300   7.5716

          k =-0.3340-1.0020 0.0000 (   308 PWs)   bands (ev):

     1.4594   1.4696   5.6113   5.6233

          k =-0.1670-0.1670-0.1670 (   320 PWs)   bands (ev):

    -7.2730   9.8802  12.6630  12.6630

          k =-0.3340-0.3340-0.3340 (   308 PWs)   bands (ev):

    -4.9676   4.1726  11.3285  11.3285

          k = 0.5010 0.5010 0.5010 (   332 PWs)   bands (ev):

    -2.0174  -0.0380  10.8350  10.8350

          k = 0.5010 0.1670-0.1670 (   322 PWs)   bands (ev):

    -5.2149   6.3925   9.7411  10.2604

          k =-0.5010-0.1670-0.1670 (   322 PWs)   bands (ev):

    -5.2150   6.3786   9.7541  10.2636

          k =-0.3340-0.6680 0.6680 (   321 PWs)   bands (ev):

    -2.1200   1.4542   8.6469   9.6120

          k = 0.3340 0.6680 0.6680 (   321 PWs)   bands (ev):

    -2.1172   1.4414   8.6468   9.6244

          k =-0.1670-0.5010 0.5010 (   314 PWs)   bands (ev):

    -3.2450   2.9957   7.9273  10.6517

          k = 0.1670 0.5010 0.5010 (   314 PWs)   bands (ev):

    -3.2443   2.9835   7.9272  10.6680

          k =-0.0000-0.3340 0.3340 (   317 PWs)   bands (ev):

    -5.9815   7.9829   8.7545  12.2848

          k =-0.1670-0.8350 0.8350 (   318 PWs)   bands (ev):

    -1.2883   3.4789   5.8035   7.8863

          k = 0.1670 0.8350 0.8350 (   318 PWs)   bands (ev):

    -1.2873   3.4706   5.8013   7.8973

          k =-0.0000-0.6680 0.6680 (   323 PWs)   bands (ev):

    -0.3932   2.7072   4.0055   8.8694

          k =-0.3340-0.6680 1.0020 (   318 PWs)   bands (ev):

    -2.9783   4.9899   6.1786   8.7641

          k = 0.1670 0.5010 0.8350 (   318 PWs)   bands (ev):

    -0.2200   1.7554   5.7416   7.5734

          k =-0.8350-0.1670 0.5010 (   318 PWs)   bands (ev):

    -0.2282   1.7744   5.7479   7.5535

     highest occupied level (ev):    13.7263

!    total energy              =     -23.05624365 Ry
     estimated scf accuracy    <          4.0E-09 Ry

     The total energy is the sum of the following terms:
     one-electron contribution =       8.32401289 Ry
     hartree contribution      =       1.88523211 Ry
     xc contribution           =      -7.40102172 Ry
     ewald contribution        =     -25.86446693 Ry

     convergence has been achieved in   3 iterations

     Forces acting on atoms (cartesian axes, Ry/au):

     atom    1 type  1   force =    -0.00164139   -0.00164139   -0.00164139
     atom    2 type  1   force =     0.00164139    0.00164139    0.00164139

     Total force =     0.004021     Total SCF correction =     0.000033


     Computing stress (Cartesian axis) and pressure

          total   stress  (Ry/bohr**3)                   (kbar)     P=       19.71
   0.00013397   0.00000478   0.00000478           19.71        0.70        0.70
   0.00000478   0.00013397   0.00000478            0.70       19.71        0.70
   0.00000478   0.00000478   0.00013397            0.70        0.70       19.71

     Energy error            =      8.5E-06 Ry
     Gradient error          =      1.6E-03 Ry/Bohr

     number of scf cycles    =   2
     number of bfgs steps    =   1

     energy             old  =     -23.0562351566 Ry
     energy             new  =     -23.0562436479 Ry

     CASE: energy            _new < energy            _old

     new trust radius        =       0.0017630812 bohr
     new conv_thr            =            1.0E-10 Ry


ATOMIC_POSITIONS (alat)
C             0.0002488633        0.0002488633        0.0002488633
C             0.2497511367        0.2497511367        0.2497511367



     Writing config-only to output data dir ./Diamond.save/
     NEW-OLD atomic charge density approx. for the potential

     total cpu time spent up to now is        7.3 secs

     Self-consistent Calculation

     iteration #  1     ecut=    40.00 Ry     beta= 0.70
     CG style diagonalization
     ethr =  1.00E-06,  avg # of iterations =  3.3

     Threshold (ethr) on eigenvalues was too large:
     Diagonalizing with lowered threshold

     CG style diagonalization
     ethr =  1.17E-08,  avg # of iterations =  4.0

     total cpu time spent up to now is        8.5 secs

     total energy              =     -23.05624855 Ry
     estimated scf accuracy    <       0.00000061 Ry

     iteration #  2     ecut=    40.00 Ry     beta= 0.70
     CG style diagonalization
     ethr =  7.64E-09,  avg # of iterations =  3.3

     total cpu time spent up to now is        9.0 secs

     total energy              =     -23.05624860 Ry
     estimated scf accuracy    <       0.00000001 Ry

     iteration #  3     ecut=    40.00 Ry     beta= 0.70
     CG style diagonalization
     ethr =  1.49E-10,  avg # of iterations =  3.9

     total cpu time spent up to now is        9.6 secs

     total energy              =     -23.05624860 Ry
     estimated scf accuracy    <          6.3E-10 Ry

     iteration #  4     ecut=    40.00 Ry     beta= 0.70
     CG style diagonalization
     ethr =  7.84E-12,  avg # of iterations =  3.8

     total cpu time spent up to now is       10.2 secs

     End of self-consistent calculation

          k = 0.0000 0.0000 0.0000 (   331 PWs)   bands (ev):

    -8.0561  13.7093  13.7093  13.7097

          k =-0.1670 0.1670-0.1670 (   320 PWs)   bands (ev):

    -7.2729   9.8959  12.6528  12.6531

          k =-0.3340 0.3340-0.3340 (   308 PWs)   bands (ev):

    -4.9675   4.1812  11.3231  11.3234

          k = 0.5010-0.5010 0.5010 (   332 PWs)   bands (ev):

    -2.0225  -0.0259  10.8309  10.8312

          k = 0.0000 0.3340 0.0000 (   307 PWs)   bands (ev):

    -7.0127  11.0466  11.0468  11.5340

          k =-0.1670 0.5010-0.1670 (   322 PWs)   bands (ev):

    -5.2149   6.3899   9.7488  10.2552

          k = 0.6680-0.3340 0.6680 (   321 PWs)   bands (ev):

    -2.1193   1.4512   8.6423   9.6197

          k = 0.5010-0.1670 0.5010 (   314 PWs)   bands (ev):

    -3.2447   2.9924   7.9235  10.6612

          k = 0.3340-0.0000 0.3340 (   317 PWs)   bands (ev):

    -5.9816   7.9738   8.7555  12.2976

          k = 0.0000 0.6680 0.0000 (   323 PWs)   bands (ev):

    -3.9462   6.5752   8.2265   8.2266

          k = 0.8350-0.1670 0.8350 (   318 PWs)   bands (ev):

    -1.2881   3.4786   5.7983   7.8922

          k = 0.6680-0.0000 0.6680 (   323 PWs)   bands (ev):

    -0.3916   2.7021   4.0037   8.8764

          k = 0.0000-1.0020 0.0000 (   326 PWs)   bands (ev):

     0.8615   0.8616   7.2110   7.2111

          k = 0.6680-0.3340 1.0020 (   318 PWs)   bands (ev):

    -2.9784   4.9972   6.1782   8.7556

          k = 0.5010-0.1670 0.8350 (   318 PWs)   bands (ev):

    -0.2259   1.7701   5.7375   7.5675

          k =-0.3340-1.0020 0.0000 (   308 PWs)   bands (ev):

     1.4645   1.4646   5.6173   5.6174

          k =-0.1670-0.1670-0.1670 (   320 PWs)   bands (ev):

    -7.2729   9.8961  12.6528  12.6528

          k =-0.3340-0.3340-0.3340 (   308 PWs)   bands (ev):

    -4.9675   4.1813  11.3232  11.3232

          k = 0.5010 0.5010 0.5010 (   332 PWs)   bands (ev):

    -2.0226  -0.0257  10.8310  10.8310

          k = 0.5010 0.1670-0.1670 (   322 PWs)   bands (ev):

    -5.2149   6.3899   9.7490  10.2550

          k =-0.5010-0.1670-0.1670 (   322 PWs)   bands (ev):

    -5.2149   6.3901   9.7489  10.2550

          k =-0.3340-0.6680 0.6680 (   321 PWs)   bands (ev):

    -2.1193   1.4512   8.6421   9.6199

          k = 0.3340 0.6680 0.6680 (   321 PWs)   bands (ev):

    -2.1193   1.4513   8.6421   9.6198

          k =-0.1670-0.5010 0.5010 (   314 PWs)   bands (ev):

    -3.2447   2.9924   7.9234  10.6614

          k = 0.1670 0.5010 0.5010 (   314 PWs)   bands (ev):

    -3.2448   2.9925   7.9234  10.6612

          k =-0.0000-0.3340 0.3340 (   317 PWs)   bands (ev):

    -5.9816   7.9736   8.7555  12.2978

          k =-0.1670-0.8350 0.8350 (   318 PWs)   bands (ev):

    -1.2881   3.4787   5.7981   7.8923

          k = 0.1670 0.8350 0.8350 (   318 PWs)   bands (ev):

    -1.2881   3.4788   5.7982   7.8922

          k =-0.0000-0.6680 0.6680 (   323 PWs)   bands (ev):

    -0.3916   2.7020   4.0036   8.8765

          k =-0.3340-0.6680 1.0020 (   318 PWs)   bands (ev):

    -2.9784   4.9973   6.1782   8.7555

          k = 0.1670 0.5010 0.8350 (   318 PWs)   bands (ev):

    -0.2260   1.7703   5.7374   7.5675

          k =-0.8350-0.1670 0.5010 (   318 PWs)   bands (ev):

    -0.2259   1.7701   5.7373   7.5676

     highest occupied level (ev):    13.7097

!    total energy              =     -23.05624860 Ry
     estimated scf accuracy    <          3.1E-11 Ry

     The total energy is the sum of the following terms:
     one-electron contribution =       8.32402725 Ry
     hartree contribution      =       1.88522000 Ry
     xc contribution           =      -7.40101778 Ry
     ewald contribution        =     -25.86447807 Ry

     convergence has been achieved in   4 iterations

     Forces acting on atoms (cartesian axes, Ry/au):

     atom    1 type  1   force =     0.00001107    0.00001107    0.00001107
     atom    2 type  1   force =    -0.00001107   -0.00001107   -0.00001107

     Total force =     0.000027     Total SCF correction =     0.000007
     SCF correction compared to forces is large: reduce conv_thr to get better values


     Computing stress (Cartesian axis) and pressure

          total   stress  (Ry/bohr**3)                   (kbar)     P=       19.66
   0.00013366   0.00000003   0.00000003           19.66        0.00        0.00
   0.00000003   0.00013366   0.00000003            0.00       19.66        0.00
   0.00000003   0.00000003   0.00013366            0.00        0.00       19.66

     Energy error            =      5.0E-06 Ry
     Gradient error          =      1.1E-05 Ry/Bohr

     bfgs converged in   3 scf cycles and   2 bfgs steps
     (criteria: energy <  1.0E-04 Ry, force <  1.0E-03 Ry/Bohr)

     End of BFGS Geometry Optimization

     Final energy             =     -23.0562486048 Ry

     File ./Diamond.bfgs deleted, as requested
Begin final coordinates

ATOMIC_POSITIONS (alat)
C             0.0002488633        0.0002488633        0.0002488633
C             0.2497511367        0.2497511367        0.2497511367
End final coordinates



     Writing all to output data dir ./Diamond.save/
 
     init_run     :      0.51s CPU      0.54s WALL (       1 calls)
     electrons    :      7.25s CPU      8.77s WALL (       3 calls)
     update_pot   :      0.01s CPU      0.02s WALL (       2 calls)
     forces       :      0.07s CPU      0.08s WALL (       3 calls)
     stress       :      0.38s CPU      0.38s WALL (       3 calls)

     Called by init_run:
     wfcinit      :      0.21s CPU      0.22s WALL (       1 calls)
     potinit      :      0.00s CPU      0.01s WALL (       1 calls)
     hinit0       :      0.28s CPU      0.30s WALL (       1 calls)

     Called by electrons:
     c_bands      :      6.31s CPU      7.73s WALL (      15 calls)
     sum_band     :      0.85s CPU      0.88s WALL (      15 calls)
     v_of_rho     :      0.03s CPU      0.04s WALL (      16 calls)
     newd         :      0.05s CPU      0.06s WALL (      16 calls)
     mix_rho      :      0.01s CPU      0.01s WALL (      15 calls)

     Called by c_bands:
     init_us_2    :      0.23s CPU      0.29s WALL (    1184 calls)
     init_us_2:cp :      0.22s CPU      0.27s WALL (    1184 calls)
     ccgdiagg     :      5.04s CPU      5.62s WALL (     480 calls)
     wfcrot       :      1.18s CPU      1.27s WALL (     352 calls)

     Called by *cgdiagg:
     h_psi        :      5.10s CPU      5.62s WALL (    6254 calls)
     s_psi        :      0.23s CPU      0.27s WALL (   12156 calls)

     Called by h_psi:
     h_psi:calbec :      0.21s CPU      0.24s WALL (    6254 calls)
     vloc_psi     :      4.51s CPU      4.96s WALL (    6254 calls)
     add_vuspsi   :      0.13s CPU      0.15s WALL (    6254 calls)
     hs_1psi      :      4.44s CPU      4.93s WALL (    5902 calls)
     s_1psi       :      0.39s CPU      0.44s WALL (    5902 calls)

     General routines
     calbec       :      0.28s CPU      0.32s WALL (   13116 calls)
     fft          :      0.03s CPU      0.05s WALL (      92 calls)
     ffts         :      0.01s CPU      0.01s WALL (      15 calls)
     fftw         :      4.64s CPU      5.07s WALL (   16796 calls)
 
     Parallel routines
 
     PWSCF        :      8.63s CPU     10.69s WALL

 
   This run was terminated on:  19: 5:33  14Mar2022            

=------------------------------------------------------------------------------=
   JOB DONE.
=------------------------------------------------------------------------------=
