
     Program PWSCF v.7.0 starts on 21Feb2022 at 17:11:54 

     This program is part of the open-source Quantum ESPRESSO suite
     for quantum simulation of materials; please cite
         "P. Giannozzi et al., J. Phys.:Condens. Matter 21 395502 (2009);
         "P. Giannozzi et al., J. Phys.:Condens. Matter 29 465901 (2017);
         "P. Giannozzi et al., J. Chem. Phys. 152 154105 (2020);
          URL http://www.quantum-espresso.org", 
     in publications or presentations arising from this work. More details at
     http://www.quantum-espresso.org/quote

     Parallel version (MPI), running on     1 processors

     MPI processes distributed on     1 nodes
     85896 MiB available memory on the printing compute node when the environment starts
 
     Waiting for input...
     Reading input from standard input
Warning: card &CELL ignored
Warning: card  CELL_DYNAMICS = 'BFGS', ignored
Warning: card  PRESS=0.1D0, ignored
Warning: card / ignored

     Current dimensions of program PWSCF are:
     Max number of different atomic species (ntypx) = 10
     Max number of k-points (npk) =  40000
     Max angular momentum in pseudopotentials (lmaxx) =  4

     Subspace diagonalization in iterative solution of the eigenvalue problem:
     a serial algorithm will be used

 
     G-vector sticks info
     --------------------
     sticks:   dense  smooth     PW     G-vecs:    dense   smooth      PW
     Sum        1663     559    169                45143     8657    1471
 
     Using Slab Decomposition
 


     bravais-lattice index     =            2
     lattice parameter (alat)  =       9.0000  a.u.
     unit-cell volume          =     182.2500 (a.u.)^3
     number of atoms/cell      =            2
     number of atomic types    =            2
     number of electrons       =         8.00
     number of Kohn-Sham states=            4
     kinetic-energy cutoff     =      50.0000  Ry
     charge density cutoff     =     600.0000  Ry
     scf convergence threshold =      1.0E-08
     mixing beta               =       0.7000
     number of iterations used =            8  plain     mixing
     Exchange-correlation= SLA  PZ   NOGX NOGC
                           (   1   1   0   0   0   0   0)

     celldm(1)=   9.000000  celldm(2)=   0.000000  celldm(3)=   0.000000
     celldm(4)=   0.000000  celldm(5)=   0.000000  celldm(6)=   0.000000

     crystal axes: (cart. coord. in units of alat)
               a(1) = (  -0.500000   0.000000   0.500000 )  
               a(2) = (   0.000000   0.500000   0.500000 )  
               a(3) = (  -0.500000   0.500000   0.000000 )  

     reciprocal axes: (cart. coord. in units 2 pi/alat)
               b(1) = ( -1.000000 -1.000000  1.000000 )  
               b(2) = (  1.000000  1.000000  1.000000 )  
               b(3) = ( -1.000000  1.000000 -1.000000 )  


     PseudoPot. # 1 for B  read from file:
     ./pseudo_dir/B_LDA.UPF
     MD5 check sum: a9970de764dbc07c3a3d9583c605c3b2
     Pseudo is Ultrasoft + core correction, Zval =  3.0
     Generated by new atomic code, or converted to UPF format
     Using radial grid of  781 points,  4 beta functions with: 
                l(1) =   0
                l(2) =   0
                l(3) =   1
                l(4) =   1
     Q(r) pseudized with  8 coefficients,  rinner =    1.100   1.100   1.100


     PseudoPot. # 2 for As read from file:
     ./pseudo_dir/As_LDA.UPF
     MD5 check sum: 6d2e8cbe4ed9d0db7c6ef7a361cc050d
     Pseudo is Ultrasoft + core correction, Zval =  5.0
     Generated by new atomic code, or converted to UPF format
     Using radial grid of  875 points,  6 beta functions with: 
                l(1) =   0
                l(2) =   0
                l(3) =   1
                l(4) =   1
                l(5) =   2
                l(6) =   2
     Q(r) pseudized with  8 coefficients,  rinner =    1.300   1.300   1.300
                                                       1.300   1.300

     atomic species   valence    mass     pseudopotential
        B              3.00    10.81100     B ( 1.00)
        As             5.00    74.92160     As( 1.00)

     24 Sym. Ops. (no inversion) found



   Cartesian axes

     site n.     atom                  positions (alat units)
         1           B   tau(   1) = (   0.0000000   0.0000000   0.0000000  )
         2           As  tau(   2) = (  -0.2500000   0.2500000   0.2500000  )

     number of k points=    72
                       cart. coord. in units 2pi/alat
        k(    1) = (   0.0000000   0.0000000   0.0000000), wk =   0.0011574
        k(    2) = (  -0.0833333   0.0833333  -0.0833333), wk =   0.0092593
        k(    3) = (  -0.1666667   0.1666667  -0.1666667), wk =   0.0092593
        k(    4) = (  -0.2500000   0.2500000  -0.2500000), wk =   0.0092593
        k(    5) = (  -0.3333333   0.3333333  -0.3333333), wk =   0.0092593
        k(    6) = (  -0.4166667   0.4166667  -0.4166667), wk =   0.0092593
        k(    7) = (   0.5000000  -0.5000000   0.5000000), wk =   0.0046296
        k(    8) = (   0.0000000   0.1666667   0.0000000), wk =   0.0069444
        k(    9) = (  -0.0833333   0.2500000  -0.0833333), wk =   0.0277778
        k(   10) = (  -0.1666667   0.3333333  -0.1666667), wk =   0.0277778
        k(   11) = (  -0.2500000   0.4166667  -0.2500000), wk =   0.0277778
        k(   12) = (  -0.3333333   0.5000000  -0.3333333), wk =   0.0277778
        k(   13) = (   0.5833333  -0.4166667   0.5833333), wk =   0.0277778
        k(   14) = (   0.5000000  -0.3333333   0.5000000), wk =   0.0277778
        k(   15) = (   0.4166667  -0.2500000   0.4166667), wk =   0.0277778
        k(   16) = (   0.3333333  -0.1666667   0.3333333), wk =   0.0277778
        k(   17) = (   0.2500000  -0.0833333   0.2500000), wk =   0.0277778
        k(   18) = (   0.1666667  -0.0000000   0.1666667), wk =   0.0138889
        k(   19) = (   0.0000000   0.3333333   0.0000000), wk =   0.0069444
        k(   20) = (  -0.0833333   0.4166667  -0.0833333), wk =   0.0277778
        k(   21) = (  -0.1666667   0.5000000  -0.1666667), wk =   0.0277778
        k(   22) = (  -0.2500000   0.5833333  -0.2500000), wk =   0.0277778
        k(   23) = (   0.6666667  -0.3333333   0.6666667), wk =   0.0277778
        k(   24) = (   0.5833333  -0.2500000   0.5833333), wk =   0.0277778
        k(   25) = (   0.5000000  -0.1666667   0.5000000), wk =   0.0277778
        k(   26) = (   0.4166667  -0.0833333   0.4166667), wk =   0.0277778
        k(   27) = (   0.3333333  -0.0000000   0.3333333), wk =   0.0138889
        k(   28) = (   0.0000000   0.5000000   0.0000000), wk =   0.0069444
        k(   29) = (  -0.0833333   0.5833333  -0.0833333), wk =   0.0277778
        k(   30) = (  -0.1666667   0.6666667  -0.1666667), wk =   0.0277778
        k(   31) = (   0.7500000  -0.2500000   0.7500000), wk =   0.0277778
        k(   32) = (   0.6666667  -0.1666667   0.6666667), wk =   0.0277778
        k(   33) = (   0.5833333  -0.0833333   0.5833333), wk =   0.0277778
        k(   34) = (   0.5000000   0.0000000   0.5000000), wk =   0.0138889
        k(   35) = (   0.0000000   0.6666667   0.0000000), wk =   0.0069444
        k(   36) = (  -0.0833333   0.7500000  -0.0833333), wk =   0.0277778
        k(   37) = (   0.8333333  -0.1666667   0.8333333), wk =   0.0277778
        k(   38) = (   0.7500000  -0.0833333   0.7500000), wk =   0.0277778
        k(   39) = (   0.6666667  -0.0000000   0.6666667), wk =   0.0138889
        k(   40) = (   0.0000000   0.8333333   0.0000000), wk =   0.0069444
        k(   41) = (   0.9166667  -0.0833333   0.9166667), wk =   0.0277778
        k(   42) = (   0.8333333  -0.0000000   0.8333333), wk =   0.0138889
        k(   43) = (   0.0000000  -1.0000000   0.0000000), wk =   0.0034722
        k(   44) = (  -0.1666667   0.3333333   0.0000000), wk =   0.0277778
        k(   45) = (  -0.2500000   0.4166667  -0.0833333), wk =   0.0555556
        k(   46) = (  -0.3333333   0.5000000  -0.1666667), wk =   0.0555556
        k(   47) = (   0.5833333  -0.4166667   0.7500000), wk =   0.0555556
        k(   48) = (   0.5000000  -0.3333333   0.6666667), wk =   0.0277778
        k(   49) = (  -0.1666667   0.5000000   0.0000000), wk =   0.0277778
        k(   50) = (  -0.2500000   0.5833333  -0.0833333), wk =   0.0555556
        k(   51) = (   0.6666667  -0.3333333   0.8333333), wk =   0.0555556
        k(   52) = (   0.5833333  -0.2500000   0.7500000), wk =   0.0555556
        k(   53) = (   0.5000000  -0.1666667   0.6666667), wk =   0.0555556
        k(   54) = (   0.4166667  -0.0833333   0.5833333), wk =   0.0555556
        k(   55) = (   0.3333333  -0.0000000   0.5000000), wk =   0.0277778
        k(   56) = (  -0.1666667   0.6666667   0.0000000), wk =   0.0277778
        k(   57) = (   0.7500000  -0.2500000   0.9166667), wk =   0.0555556
        k(   58) = (   0.6666667  -0.1666667   0.8333333), wk =   0.0555556
        k(   59) = (   0.5833333  -0.0833333   0.7500000), wk =   0.0555556
        k(   60) = (   0.5000000   0.0000000   0.6666667), wk =   0.0277778
        k(   61) = (   0.8333333  -0.1666667   1.0000000), wk =   0.0277778
        k(   62) = (   0.7500000  -0.0833333   0.9166667), wk =   0.0555556
        k(   63) = (   0.6666667   0.0000000   0.8333333), wk =   0.0277778
        k(   64) = (  -0.1666667  -1.0000000   0.0000000), wk =   0.0138889
        k(   65) = (   0.6666667  -0.3333333   1.0000000), wk =   0.0277778
        k(   66) = (   0.5833333  -0.2500000   0.9166667), wk =   0.0555556
        k(   67) = (   0.5000000  -0.1666667   0.8333333), wk =   0.0277778
        k(   68) = (   0.6666667  -0.1666667   1.0000000), wk =   0.0277778
        k(   69) = (   0.5833333  -0.0833333   0.9166667), wk =   0.0555556
        k(   70) = (   0.5000000   0.0000000   0.8333333), wk =   0.0277778
        k(   71) = (  -0.3333333  -1.0000000   0.0000000), wk =   0.0138889
        k(   72) = (  -0.5000000  -1.0000000   0.0000000), wk =   0.0069444

     Dense  grid:    45143 G-vectors     FFT dimensions: (  50,  50,  50)

     Smooth grid:     8657 G-vectors     FFT dimensions: (  30,  30,  30)

     Estimated max dynamical RAM per process >     176.12 MB

     Initial potential from superposition of free atoms

     starting charge       7.9996, renormalised to       8.0000
     Starting wfcs are    8 randomized atomic wfcs

     total cpu time spent up to now is        4.7 secs

     Self-consistent Calculation

     iteration #  1     ecut=    50.00 Ry     beta= 0.70
     CG style diagonalization
     ethr =  1.00E-02,  avg # of iterations =  2.6

     total cpu time spent up to now is        7.6 secs

     total energy              =     -46.15110717 Ry
     estimated scf accuracy    <       0.14526918 Ry

     iteration #  2     ecut=    50.00 Ry     beta= 0.70
     CG style diagonalization
     ethr =  1.82E-03,  avg # of iterations =  4.2

     total cpu time spent up to now is       11.4 secs

     total energy              =     -46.18395041 Ry
     estimated scf accuracy    <       0.03711863 Ry

     iteration #  3     ecut=    50.00 Ry     beta= 0.70
     CG style diagonalization
     ethr =  4.64E-04,  avg # of iterations =  4.1

     total cpu time spent up to now is       15.1 secs

     total energy              =     -46.19215143 Ry
     estimated scf accuracy    <       0.00038315 Ry

     iteration #  4     ecut=    50.00 Ry     beta= 0.70
     CG style diagonalization
     ethr =  4.79E-06,  avg # of iterations =  4.7

     total cpu time spent up to now is       19.2 secs

     total energy              =     -46.19243964 Ry
     estimated scf accuracy    <       0.00008301 Ry

     iteration #  5     ecut=    50.00 Ry     beta= 0.70
     CG style diagonalization
     ethr =  1.04E-06,  avg # of iterations =  4.1

     total cpu time spent up to now is       22.8 secs

     total energy              =     -46.19246075 Ry
     estimated scf accuracy    <       0.00000277 Ry

     iteration #  6     ecut=    50.00 Ry     beta= 0.70
     CG style diagonalization
     ethr =  3.47E-08,  avg # of iterations =  5.6

     total cpu time spent up to now is       27.5 secs

     total energy              =     -46.19246390 Ry
     estimated scf accuracy    <       0.00000041 Ry

     iteration #  7     ecut=    50.00 Ry     beta= 0.70
     CG style diagonalization
     ethr =  5.12E-09,  avg # of iterations =  4.8

     total cpu time spent up to now is       31.6 secs

     total energy              =     -46.19246407 Ry
     estimated scf accuracy    <       0.00000021 Ry

     iteration #  8     ecut=    50.00 Ry     beta= 0.70
     CG style diagonalization
     ethr =  2.65E-09,  avg # of iterations =  4.4

     total cpu time spent up to now is       35.5 secs

     total energy              =     -46.19246415 Ry
     estimated scf accuracy    <       0.00000003 Ry

     iteration #  9     ecut=    50.00 Ry     beta= 0.70
     CG style diagonalization
     ethr =  4.01E-10,  avg # of iterations =  4.1

     total cpu time spent up to now is       39.2 secs

     End of self-consistent calculation

          k = 0.0000 0.0000 0.0000 (  1067 PWs)   bands (ev):

    -6.9879   8.4893   8.4893   8.4893

          k =-0.0833 0.0833-0.0833 (  1085 PWs)   bands (ev):

    -6.8732   7.4501   8.2688   8.2688

          k =-0.1667 0.1667-0.1667 (  1080 PWs)   bands (ev):

    -6.5331   5.5228   7.8036   7.8036

          k =-0.2500 0.2500-0.2500 (  1083 PWs)   bands (ev):

    -5.9823   3.5319   7.3352   7.3352

          k =-0.3333 0.3333-0.3333 (  1089 PWs)   bands (ev):

    -5.2622   1.7208   6.9686   6.9686

          k =-0.4167 0.4167-0.4167 (  1095 PWs)   bands (ev):

    -4.5022   0.2880   6.7406   6.7406

          k = 0.5000-0.5000 0.5000 (  1068 PWs)   bands (ev):

    -4.1068  -0.3342   6.6638   6.6638

          k = 0.0000 0.1667 0.0000 (  1082 PWs)   bands (ev):

    -6.8349   7.7793   7.8589   7.8589

          k =-0.0833 0.2500-0.0833 (  1081 PWs)   bands (ev):

    -6.5696   6.1458   7.3281   7.6918

          k =-0.1667 0.3333-0.1667 (  1085 PWs)   bands (ev):

    -6.0876   4.2030   6.8644   7.2421

          k =-0.2500 0.4167-0.2500 (  1086 PWs)   bands (ev):

    -5.4186   2.3473   6.5454   6.7476

          k =-0.3333 0.5000-0.3333 (  1097 PWs)   bands (ev):

    -4.6497   0.7779   6.3301   6.3982

          k = 0.5833-0.4167 0.5833 (  1088 PWs)   bands (ev):

    -4.0680  -0.1741   6.0405   6.4274

          k = 0.5000-0.3333 0.5000 (  1086 PWs)   bands (ev):

    -4.2081   0.0414   5.9057   6.6239

          k = 0.4167-0.2500 0.4167 (  1089 PWs)   bands (ev):

    -4.9076   1.2589   5.9429   6.9681

          k = 0.3333-0.1667 0.3333 (  1093 PWs)   bands (ev):

    -5.6601   2.9467   6.1615   7.4238

          k = 0.2500-0.0833 0.2500 (  1081 PWs)   bands (ev):

    -6.2718   4.8394   6.5685   7.9182

          k = 0.1667-0.0000 0.1667 (  1079 PWs)   bands (ev):

    -6.6832   6.5871   7.2581   8.2855

          k = 0.0000 0.3333 0.0000 (  1082 PWs)   bands (ev):

    -6.3799   6.2289   6.7618   6.7618

          k =-0.0833 0.4167-0.0833 (  1081 PWs)   bands (ev):

    -5.9712   4.7410   6.2785   6.3978

          k =-0.1667 0.5000-0.1667 (  1083 PWs)   bands (ev):

    -5.3652   3.0066   5.8493   5.9549

          k =-0.2500 0.5833-0.2500 (  1087 PWs)   bands (ev):

    -4.6232   1.4162   5.2800   5.8211

          k = 0.6667-0.3333 0.6667 (  1095 PWs)   bands (ev):

    -3.9405   0.2607   4.8163   5.8840

          k = 0.5833-0.2500 0.5833 (  1092 PWs)   bands (ev):

    -3.8117   0.0709   4.5157   6.1348

          k = 0.5000-0.1667 0.5000 (  1095 PWs)   bands (ev):

    -4.3831   0.9940   4.4153   6.5478

          k = 0.4167-0.0833 0.4167 (  1088 PWs)   bands (ev):

    -5.1381   2.4639   4.5636   7.0710

          k = 0.3333-0.0000 0.3333 (  1077 PWs)   bands (ev):

    -5.7968   3.9439   5.1674   7.5975

          k = 0.0000 0.5000 0.0000 (  1094 PWs)   bands (ev):

    -5.6371   4.4177   5.7637   5.7637

          k =-0.0833 0.5833-0.0833 (  1079 PWs)   bands (ev):

    -5.1021   3.2332   5.1900   5.4074

          k =-0.1667 0.6667-0.1667 (  1084 PWs)   bands (ev):

    -4.4124   1.9057   4.4158   5.2461

          k = 0.7500-0.2500 0.7500 (  1088 PWs)   bands (ev):

    -3.7061   0.7769   3.7181   5.2915

          k = 0.6667-0.1667 0.6667 (  1093 PWs)   bands (ev):

    -3.3718   0.3204   3.2280   5.5383

          k = 0.5833-0.0833 0.5833 (  1095 PWs)   bands (ev):

    -3.7524   0.8802   3.0266   5.9627

          k = 0.5000 0.0000 0.5000 (  1097 PWs)   bands (ev):

    -4.4604   1.8507   3.3486   6.5114

          k = 0.0000 0.6667 0.0000 (  1078 PWs)   bands (ev):

    -4.6427   2.5728   5.0070   5.0070

          k =-0.0833 0.7500-0.0833 (  1082 PWs)   bands (ev):

    -4.0274   1.6358   4.3814   4.7998

          k = 0.8333-0.1667 0.8333 (  1086 PWs)   bands (ev):

    -3.3695   0.8241   3.4261   4.8029

          k = 0.7500-0.0833 0.7500 (  1096 PWs)   bands (ev):

    -2.9700   0.4458   2.6202   5.0151

          k = 0.6667-0.0000 0.6667 (  1113 PWs)   bands (ev):

    -3.1689   0.6697   2.3343   5.4174

          k = 0.0000 0.8333 0.0000 (  1082 PWs)   bands (ev):

    -3.5136   0.8964   4.5399   4.5399

          k = 0.9167-0.0833 0.9167 (  1090 PWs)   bands (ev):

    -3.0034   0.3070   3.9911   4.4896

          k = 0.8333-0.0000 0.8333 (  1103 PWs)   bands (ev):

    -2.7764   0.2048   3.0969   4.6526

          k = 0.0000-1.0000 0.0000 (  1106 PWs)   bands (ev):

    -2.8197   0.0131   4.3822   4.3822

          k =-0.1667 0.3333 0.0000 (  1080 PWs)   bands (ev):

    -6.2326   5.2027   6.1940   7.4864

          k =-0.2500 0.4167-0.0833 (  1087 PWs)   bands (ev):

    -5.6877   3.5818   5.5268   7.0714

          k =-0.3333 0.5000-0.1667 (  1086 PWs)   bands (ev):

    -4.9770   1.8906   5.2098   6.5858

          k = 0.5833-0.4167 0.7500 (  1093 PWs)   bands (ev):

    -4.2305   0.5158   5.0727   6.2118

          k = 0.5000-0.3333 0.6667 (  1088 PWs)   bands (ev):

    -3.8447  -0.0842   5.0410   6.0685

          k =-0.1667 0.5000 0.0000 (  1076 PWs)   bands (ev):

    -5.4990   3.7995   5.2261   6.1880

          k =-0.2500 0.5833-0.0833 (  1082 PWs)   bands (ev):

    -4.8475   2.4436   4.5752   5.7632

          k = 0.6667-0.3333 0.8333 (  1090 PWs)   bands (ev):

    -4.1075   1.1031   4.1760   5.4378

          k = 0.5833-0.2500 0.7500 (  1093 PWs)   bands (ev):

    -3.5621   0.2668   3.8711   5.4009

          k = 0.5000-0.1667 0.6667 (  1092 PWs)   bands (ev):

    -3.7024   0.4807   3.6900   5.6478

          k = 0.4167-0.0833 0.5833 (  1087 PWs)   bands (ev):

    -4.3698   1.5548   3.7326   6.0993

          k = 0.3333-0.0000 0.5000 (  1086 PWs)   bands (ev):

    -5.0945   2.7867   4.2369   6.6418

          k =-0.1667 0.6667 0.0000 (  1079 PWs)   bands (ev):

    -4.5229   2.3353   4.5045   5.0464

          k = 0.7500-0.2500 0.9167 (  1081 PWs)   bands (ev):

    -3.8319   1.3589   3.7520   4.7396

          k = 0.6667-0.1667 0.8333 (  1091 PWs)   bands (ev):

    -3.2354   0.6080   3.0621   4.7521

          k = 0.5833-0.0833 0.7500 (  1098 PWs)   bands (ev):

    -3.1650   0.5585   2.6461   5.0330

          k = 0.5000 0.0000 0.6667 (  1092 PWs)   bands (ev):

    -3.6850   1.1253   2.7573   5.5146

          k = 0.8333-0.1667 1.0000 (  1086 PWs)   bands (ev):

    -3.4306   0.8952   4.0857   4.3179

          k = 0.7500-0.0833 0.9167 (  1094 PWs)   bands (ev):

    -2.9173   0.4198   3.2332   4.2724

          k = 0.6667 0.0000 0.8333 (  1100 PWs)   bands (ev):

    -2.8123   0.4299   2.5238   4.5484

          k =-0.1667-1.0000 0.0000 (  1096 PWs)   bands (ev):

    -2.7801   0.1131   3.9883   4.0353

          k = 0.6667-0.3333 1.0000 (  1080 PWs)   bands (ev):

    -4.1817   1.7539   3.5684   5.2424

          k = 0.5833-0.2500 0.9167 (  1090 PWs)   bands (ev):

    -3.5005   0.9034   3.1256   4.7683

          k = 0.5000-0.1667 0.8333 (  1090 PWs)   bands (ev):

    -3.1610   0.4660   3.0280   4.5816

          k = 0.6667-0.1667 1.0000 (  1080 PWs)   bands (ev):

    -3.2148   0.8368   3.2431   4.0492

          k = 0.5833-0.0833 0.9167 (  1092 PWs)   bands (ev):

    -2.8241   0.5373   2.7724   3.8496

          k = 0.5000 0.0000 0.8333 (  1091 PWs)   bands (ev):

    -2.9670   0.6675   2.6031   4.1635

          k =-0.3333-1.0000 0.0000 (  1090 PWs)   bands (ev):

    -2.6968   0.3548   3.2793   3.4659

          k =-0.5000-1.0000 0.0000 (  1084 PWs)   bands (ev):

    -2.6529   0.5096   2.9294   3.2195

     highest occupied level (ev):     8.4893

!    total energy              =     -46.19246416 Ry
     estimated scf accuracy    <          1.6E-10 Ry

     The total energy is the sum of the following terms:
     one-electron contribution =       6.71255401 Ry
     hartree contribution      =       1.23853968 Ry
     xc contribution           =     -34.14984789 Ry
     ewald contribution        =     -19.99370996 Ry

     convergence has been achieved in   9 iterations

     Forces acting on atoms (cartesian axes, Ry/au):

     atom    1 type  1   force =    -0.00000000    0.00000000   -0.00000000
     atom    2 type  2   force =     0.00000000   -0.00000000    0.00000000

     Total force =     0.000000     Total SCF correction =     0.000000


     Computing stress (Cartesian axis) and pressure

          total   stress  (Ry/bohr**3)                   (kbar)     P=      -13.86
  -0.00009425   0.00000000   0.00000000          -13.86        0.00        0.00
   0.00000000  -0.00009425   0.00000000            0.00      -13.86        0.00
   0.00000000   0.00000000  -0.00009425            0.00        0.00      -13.86


     Writing all to output data dir ./k12.save/
 
     init_run     :      3.16s CPU      3.45s WALL (       1 calls)
     electrons    :     32.21s CPU     34.53s WALL (       1 calls)
     forces       :      0.54s CPU      0.59s WALL (       1 calls)
     stress       :      4.24s CPU      4.38s WALL (       1 calls)

     Called by init_run:
     wfcinit      :      1.19s CPU      1.29s WALL (       1 calls)
     potinit      :      0.05s CPU      0.08s WALL (       1 calls)
     hinit0       :      1.58s CPU      1.67s WALL (       1 calls)

     Called by electrons:
     c_bands      :     23.92s CPU     25.44s WALL (       9 calls)
     sum_band     :      5.83s CPU      6.22s WALL (       9 calls)
     v_of_rho     :      0.32s CPU      0.33s WALL (      10 calls)
     newd         :      2.26s CPU      2.60s WALL (      10 calls)
     mix_rho      :      0.08s CPU      0.09s WALL (       9 calls)

     Called by c_bands:
     init_us_2    :      2.02s CPU      2.17s WALL (    1512 calls)
     init_us_2:cp :      1.99s CPU      2.14s WALL (    1512 calls)
     ccgdiagg     :     18.76s CPU     20.01s WALL (     648 calls)
     wfcrot       :      5.09s CPU      5.28s WALL (     648 calls)

     Called by *cgdiagg:
     h_psi        :     20.02s CPU     21.04s WALL (    9417 calls)
     s_psi        :      1.27s CPU      1.44s WALL (   18186 calls)

     Called by h_psi:
     h_psi:calbec :      1.21s CPU      1.28s WALL (    9417 calls)
     vloc_psi     :     17.46s CPU     18.33s WALL (    9417 calls)
     add_vuspsi   :      0.82s CPU      0.90s WALL (    9417 calls)
     hs_1psi      :     16.51s CPU     17.48s WALL (    8769 calls)
     s_1psi       :      1.53s CPU      1.68s WALL (    8769 calls)

     General routines
     calbec       :      1.79s CPU      1.98s WALL (   19194 calls)
     fft          :      0.19s CPU      0.22s WALL (      66 calls)
     ffts         :      0.01s CPU      0.02s WALL (      19 calls)
     fftw         :     16.84s CPU     17.64s WALL (   25890 calls)
     interpolate  :      0.04s CPU      0.05s WALL (      10 calls)
 
     Parallel routines
 
     PWSCF        :     41.02s CPU     45.26s WALL

 
   This run was terminated on:  17:12:40  21Feb2022            

=------------------------------------------------------------------------------=
   JOB DONE.
=------------------------------------------------------------------------------=
