
     Program PWSCF v.7.0 starts on 15Feb2022 at  8: 0:29 

     This program is part of the open-source Quantum ESPRESSO suite
     for quantum simulation of materials; please cite
         "P. Giannozzi et al., J. Phys.:Condens. Matter 21 395502 (2009);
         "P. Giannozzi et al., J. Phys.:Condens. Matter 29 465901 (2017);
         "P. Giannozzi et al., J. Chem. Phys. 152 154105 (2020);
          URL http://www.quantum-espresso.org", 
     in publications or presentations arising from this work. More details at
     http://www.quantum-espresso.org/quote

     Parallel version (MPI), running on     1 processors

     MPI processes distributed on     1 nodes
     87564 MiB available memory on the printing compute node when the environment starts
 
     Waiting for input...
     Reading input from standard input
Warning: card &CELL ignored
Warning: card  CELL_DYNAMICS = 'BFGS', ignored
Warning: card  PRESS=0.1D0, ignored
Warning: card / ignored

     Current dimensions of program PWSCF are:
     Max number of different atomic species (ntypx) = 10
     Max number of k-points (npk) =  40000
     Max angular momentum in pseudopotentials (lmaxx) =  4

     Subspace diagonalization in iterative solution of the eigenvalue problem:
     a serial algorithm will be used

 
     G-vector sticks info
     --------------------
     sticks:   dense  smooth     PW     G-vecs:    dense   smooth      PW
     Sum        1663     559    163                45143     8657    1411
 
     Using Slab Decomposition
 


     bravais-lattice index     =            2
     lattice parameter (alat)  =       9.0000  a.u.
     unit-cell volume          =     182.2500 (a.u.)^3
     number of atoms/cell      =            2
     number of atomic types    =            2
     number of electrons       =         8.00
     number of Kohn-Sham states=            4
     kinetic-energy cutoff     =      50.0000  Ry
     charge density cutoff     =     600.0000  Ry
     scf convergence threshold =      1.0E-08
     mixing beta               =       0.7000
     number of iterations used =            8  plain     mixing
     Exchange-correlation= SLA  PZ   NOGX NOGC
                           (   1   1   0   0   0   0   0)

     celldm(1)=   9.000000  celldm(2)=   0.000000  celldm(3)=   0.000000
     celldm(4)=   0.000000  celldm(5)=   0.000000  celldm(6)=   0.000000

     crystal axes: (cart. coord. in units of alat)
               a(1) = (  -0.500000   0.000000   0.500000 )  
               a(2) = (   0.000000   0.500000   0.500000 )  
               a(3) = (  -0.500000   0.500000   0.000000 )  

     reciprocal axes: (cart. coord. in units 2 pi/alat)
               b(1) = ( -1.000000 -1.000000  1.000000 )  
               b(2) = (  1.000000  1.000000  1.000000 )  
               b(3) = ( -1.000000  1.000000 -1.000000 )  


     PseudoPot. # 1 for B  read from file:
     ./pseudo_dir/B_LDA.UPF
     MD5 check sum: a9970de764dbc07c3a3d9583c605c3b2
     Pseudo is Ultrasoft + core correction, Zval =  3.0
     Generated by new atomic code, or converted to UPF format
     Using radial grid of  781 points,  4 beta functions with: 
                l(1) =   0
                l(2) =   0
                l(3) =   1
                l(4) =   1
     Q(r) pseudized with  8 coefficients,  rinner =    1.100   1.100   1.100


     PseudoPot. # 2 for As read from file:
     ./pseudo_dir/As_LDA.UPF
     MD5 check sum: 6d2e8cbe4ed9d0db7c6ef7a361cc050d
     Pseudo is Ultrasoft + core correction, Zval =  5.0
     Generated by new atomic code, or converted to UPF format
     Using radial grid of  875 points,  6 beta functions with: 
                l(1) =   0
                l(2) =   0
                l(3) =   1
                l(4) =   1
                l(5) =   2
                l(6) =   2
     Q(r) pseudized with  8 coefficients,  rinner =    1.300   1.300   1.300
                                                       1.300   1.300

     atomic species   valence    mass     pseudopotential
        B              3.00    10.81100     B ( 1.00)
        As             5.00    74.92160     As( 1.00)

     24 Sym. Ops. (no inversion) found



   Cartesian axes

     site n.     atom                  positions (alat units)
         1           B   tau(   1) = (   0.0000000   0.0000000   0.0000000  )
         2           As  tau(   2) = (  -0.2500000   0.2500000   0.2500000  )

     number of k points=     4
                       cart. coord. in units 2pi/alat
        k(    1) = (   0.0000000   0.0000000   0.0000000), wk =   0.0740741
        k(    2) = (  -0.3333333   0.3333333  -0.3333333), wk =   0.5925926
        k(    3) = (   0.0000000   0.6666667   0.0000000), wk =   0.4444444
        k(    4) = (   0.6666667  -0.0000000   0.6666667), wk =   0.8888889

     Dense  grid:    45143 G-vectors     FFT dimensions: (  50,  50,  50)

     Smooth grid:     8657 G-vectors     FFT dimensions: (  30,  30,  30)

     Estimated max dynamical RAM per process >     171.60 MB

     Initial potential from superposition of free atoms

     starting charge       7.9996, renormalised to       8.0000
     Starting wfcs are    8 randomized atomic wfcs

     total cpu time spent up to now is        3.8 secs

     Self-consistent Calculation

     iteration #  1     ecut=    50.00 Ry     beta= 0.70
     CG style diagonalization
     ethr =  1.00E-02,  avg # of iterations =  2.7

     total cpu time spent up to now is        4.6 secs

     total energy              =     -46.09683291 Ry
     estimated scf accuracy    <       0.17012718 Ry

     iteration #  2     ecut=    50.00 Ry     beta= 0.70
     CG style diagonalization
     ethr =  2.13E-03,  avg # of iterations =  4.5

     total cpu time spent up to now is        5.5 secs

     total energy              =     -46.13328595 Ry
     estimated scf accuracy    <       0.04991339 Ry

     iteration #  3     ecut=    50.00 Ry     beta= 0.70
     CG style diagonalization
     ethr =  6.24E-04,  avg # of iterations =  4.2

     total cpu time spent up to now is        6.4 secs

     total energy              =     -46.14413860 Ry
     estimated scf accuracy    <       0.00064029 Ry

     iteration #  4     ecut=    50.00 Ry     beta= 0.70
     CG style diagonalization
     ethr =  8.00E-06,  avg # of iterations =  4.4

     total cpu time spent up to now is        7.3 secs

     total energy              =     -46.14454777 Ry
     estimated scf accuracy    <       0.00006466 Ry

     iteration #  5     ecut=    50.00 Ry     beta= 0.70
     CG style diagonalization
     ethr =  8.08E-07,  avg # of iterations =  4.1

     total cpu time spent up to now is        8.2 secs

     total energy              =     -46.14456066 Ry
     estimated scf accuracy    <       0.00000049 Ry

     iteration #  6     ecut=    50.00 Ry     beta= 0.70
     CG style diagonalization
     ethr =  6.16E-09,  avg # of iterations =  7.1

     total cpu time spent up to now is        9.2 secs

     total energy              =     -46.14456412 Ry
     estimated scf accuracy    <       0.00000012 Ry

     iteration #  7     ecut=    50.00 Ry     beta= 0.70
     CG style diagonalization
     ethr =  1.51E-09,  avg # of iterations =  3.5

     total cpu time spent up to now is       10.0 secs

     total energy              =     -46.14456413 Ry
     estimated scf accuracy    <       0.00000001 Ry

     iteration #  8     ecut=    50.00 Ry     beta= 0.70
     CG style diagonalization
     ethr =  1.27E-10,  avg # of iterations =  4.1

     total cpu time spent up to now is       10.9 secs

     End of self-consistent calculation

          k = 0.0000 0.0000 0.0000 (  1067 PWs)   bands (ev):

    -6.9212   8.5978   8.5978   8.5978

          k =-0.3333 0.3333-0.3333 (  1089 PWs)   bands (ev):

    -5.1910   1.7928   7.0643   7.0643

          k = 0.0000 0.6667 0.0000 (  1078 PWs)   bands (ev):

    -4.5707   2.6633   5.0870   5.0870

          k = 0.6667-0.0000 0.6667 (  1113 PWs)   bands (ev):

    -3.0902   0.7557   2.3888   5.5013

     highest occupied level (ev):     8.5978

!    total energy              =     -46.14456413 Ry
     estimated scf accuracy    <          5.4E-10 Ry

     The total energy is the sum of the following terms:
     one-electron contribution =       6.73369254 Ry
     hartree contribution      =       1.28990480 Ry
     xc contribution           =     -34.17445151 Ry
     ewald contribution        =     -19.99370996 Ry

     convergence has been achieved in   8 iterations

     Forces acting on atoms (cartesian axes, Ry/au):

     atom    1 type  1   force =    -0.00000000   -0.00000000    0.00000000
     atom    2 type  2   force =     0.00000000    0.00000000   -0.00000000

     Total force =     0.000000     Total SCF correction =     0.000000


     Computing stress (Cartesian axis) and pressure

          total   stress  (Ry/bohr**3)                   (kbar)     P=       10.10
   0.00006869  -0.00000000   0.00000000           10.10       -0.00        0.00
  -0.00000000   0.00006869   0.00000000           -0.00       10.10        0.00
  -0.00000000  -0.00000000   0.00006869           -0.00       -0.00       10.10


     Writing all to output data dir ./k3.save/
 
     init_run     :      2.08s CPU      2.35s WALL (       1 calls)
     electrons    :      6.43s CPU      7.16s WALL (       1 calls)
     forces       :      0.37s CPU      0.42s WALL (       1 calls)
     stress       :      3.16s CPU      3.30s WALL (       1 calls)

     Called by init_run:
     wfcinit      :      0.07s CPU      0.14s WALL (       1 calls)
     potinit      :      0.05s CPU      0.07s WALL (       1 calls)
     hinit0       :      1.63s CPU      1.71s WALL (       1 calls)

     Called by electrons:
     c_bands      :      1.32s CPU      1.41s WALL (       8 calls)
     sum_band     :      2.76s CPU      3.04s WALL (       8 calls)
     v_of_rho     :      0.30s CPU      0.31s WALL (       9 calls)
     newd         :      2.21s CPU      2.51s WALL (       9 calls)
     mix_rho      :      0.07s CPU      0.08s WALL (       8 calls)

     Called by c_bands:
     init_us_2    :      0.10s CPU      0.12s WALL (      76 calls)
     init_us_2:cp :      0.10s CPU      0.12s WALL (      76 calls)
     ccgdiagg     :      1.03s CPU      1.09s WALL (      32 calls)
     wfcrot       :      0.29s CPU      0.36s WALL (      32 calls)

     Called by *cgdiagg:
     h_psi        :      1.12s CPU      1.19s WALL (     473 calls)
     s_psi        :      0.06s CPU      0.07s WALL (     914 calls)

     Called by h_psi:
     h_psi:calbec :      0.06s CPU      0.08s WALL (     473 calls)
     vloc_psi     :      0.99s CPU      1.03s WALL (     473 calls)
     add_vuspsi   :      0.04s CPU      0.05s WALL (     473 calls)
     hs_1psi      :      0.91s CPU      0.96s WALL (     441 calls)
     s_1psi       :      0.08s CPU      0.08s WALL (     441 calls)

     General routines
     calbec       :      0.09s CPU      0.11s WALL (     966 calls)
     fft          :      0.19s CPU      0.22s WALL (      60 calls)
     ffts         :      0.01s CPU      0.02s WALL (      17 calls)
     fftw         :      0.94s CPU      0.99s WALL (    1298 calls)
     interpolate  :      0.04s CPU      0.05s WALL (       9 calls)
 
     Parallel routines
 
     PWSCF        :     12.84s CPU     15.01s WALL

 
   This run was terminated on:   8: 0:44  15Feb2022            

=------------------------------------------------------------------------------=
   JOB DONE.
=------------------------------------------------------------------------------=
