
     Program PWSCF v.7.0 starts on 20Feb2022 at 13:53:14 

     This program is part of the open-source Quantum ESPRESSO suite
     for quantum simulation of materials; please cite
         "P. Giannozzi et al., J. Phys.:Condens. Matter 21 395502 (2009);
         "P. Giannozzi et al., J. Phys.:Condens. Matter 29 465901 (2017);
         "P. Giannozzi et al., J. Chem. Phys. 152 154105 (2020);
          URL http://www.quantum-espresso.org", 
     in publications or presentations arising from this work. More details at
     http://www.quantum-espresso.org/quote

     Parallel version (MPI), running on     1 processors

     MPI processes distributed on     1 nodes
     88070 MiB available memory on the printing compute node when the environment starts
 
     Waiting for input...
     Reading input from standard input
Warning: card &CELL ignored
Warning: card  CELL_DYNAMICS = 'BFGS', ignored
Warning: card  PRESS=0.1D0, ignored
Warning: card / ignored

     Current dimensions of program PWSCF are:
     Max number of different atomic species (ntypx) = 10
     Max number of k-points (npk) =  40000
     Max angular momentum in pseudopotentials (lmaxx) =  4

     Subspace diagonalization in iterative solution of the eigenvalue problem:
     a serial algorithm will be used

 
     G-vector sticks info
     --------------------
     sticks:   dense  smooth     PW     G-vecs:    dense   smooth      PW
     Sum        1333     439    151                31951     6183    1139
 
     Using Slab Decomposition
 


     bravais-lattice index     =            2
     lattice parameter (alat)  =       8.9724  a.u.
     unit-cell volume          =     180.5784 (a.u.)^3
     number of atoms/cell      =            2
     number of atomic types    =            2
     number of electrons       =         8.00
     number of Kohn-Sham states=            4
     kinetic-energy cutoff     =      40.0000  Ry
     charge density cutoff     =     480.0000  Ry
     scf convergence threshold =      1.0E-08
     mixing beta               =       0.7000
     number of iterations used =            8  plain     mixing
     Exchange-correlation= SLA  PW   PBE  PBE
                           (   1   4   3   4   0   0   0)

     celldm(1)=   8.972400  celldm(2)=   0.000000  celldm(3)=   0.000000
     celldm(4)=   0.000000  celldm(5)=   0.000000  celldm(6)=   0.000000

     crystal axes: (cart. coord. in units of alat)
               a(1) = (  -0.500000   0.000000   0.500000 )  
               a(2) = (   0.000000   0.500000   0.500000 )  
               a(3) = (  -0.500000   0.500000   0.000000 )  

     reciprocal axes: (cart. coord. in units 2 pi/alat)
               b(1) = ( -1.000000 -1.000000  1.000000 )  
               b(2) = (  1.000000  1.000000  1.000000 )  
               b(3) = ( -1.000000  1.000000 -1.000000 )  


     PseudoPot. # 1 for B  read from file:
     ./pseudo_dir/B_PBE.UPF
     MD5 check sum: cc6de2960df11db49a60e589f9ebb39b
     Pseudo is Ultrasoft + core correction, Zval =  3.0
     Generated by new atomic code, or converted to UPF format
     Using radial grid of  781 points,  4 beta functions with: 
                l(1) =   0
                l(2) =   0
                l(3) =   1
                l(4) =   1
     Q(r) pseudized with  8 coefficients,  rinner =    1.100   1.100   1.100


     PseudoPot. # 2 for As read from file:
     ./pseudo_dir/As_PBE.UPF
     MD5 check sum: a55e54db9b6ff5e275ac1f228f32106c
     Pseudo is Ultrasoft + core correction, Zval =  5.0
     Generated by new atomic code, or converted to UPF format
     Using radial grid of  875 points,  6 beta functions with: 
                l(1) =   0
                l(2) =   0
                l(3) =   1
                l(4) =   1
                l(5) =   2
                l(6) =   2
     Q(r) pseudized with  8 coefficients,  rinner =    1.300   1.300   1.300
                                                       1.300   1.300

     atomic species   valence    mass     pseudopotential
        B              3.00    10.81100     B ( 1.00)
        As             5.00    74.92160     As( 1.00)

     24 Sym. Ops. (no inversion) found



   Cartesian axes

     site n.     atom                  positions (alat units)
         1           B   tau(   1) = (   0.0000000   0.0000000   0.0000000  )
         2           As  tau(   2) = (  -0.2500000   0.2500000   0.2500000  )

     number of k points=    29
                       cart. coord. in units 2pi/alat
        k(    1) = (   0.0000000   0.0000000   0.0000000), wk =   0.0039062
        k(    2) = (  -0.1250000   0.1250000  -0.1250000), wk =   0.0312500
        k(    3) = (  -0.2500000   0.2500000  -0.2500000), wk =   0.0312500
        k(    4) = (  -0.3750000   0.3750000  -0.3750000), wk =   0.0312500
        k(    5) = (   0.5000000  -0.5000000   0.5000000), wk =   0.0156250
        k(    6) = (   0.0000000   0.2500000   0.0000000), wk =   0.0234375
        k(    7) = (  -0.1250000   0.3750000  -0.1250000), wk =   0.0937500
        k(    8) = (  -0.2500000   0.5000000  -0.2500000), wk =   0.0937500
        k(    9) = (   0.6250000  -0.3750000   0.6250000), wk =   0.0937500
        k(   10) = (   0.5000000  -0.2500000   0.5000000), wk =   0.0937500
        k(   11) = (   0.3750000  -0.1250000   0.3750000), wk =   0.0937500
        k(   12) = (   0.2500000   0.0000000   0.2500000), wk =   0.0468750
        k(   13) = (   0.0000000   0.5000000   0.0000000), wk =   0.0234375
        k(   14) = (  -0.1250000   0.6250000  -0.1250000), wk =   0.0937500
        k(   15) = (   0.7500000  -0.2500000   0.7500000), wk =   0.0937500
        k(   16) = (   0.6250000  -0.1250000   0.6250000), wk =   0.0937500
        k(   17) = (   0.5000000   0.0000000   0.5000000), wk =   0.0468750
        k(   18) = (   0.0000000   0.7500000   0.0000000), wk =   0.0234375
        k(   19) = (   0.8750000  -0.1250000   0.8750000), wk =   0.0937500
        k(   20) = (   0.7500000   0.0000000   0.7500000), wk =   0.0468750
        k(   21) = (   0.0000000  -1.0000000   0.0000000), wk =   0.0117188
        k(   22) = (  -0.2500000   0.5000000   0.0000000), wk =   0.0937500
        k(   23) = (   0.6250000  -0.3750000   0.8750000), wk =   0.1875000
        k(   24) = (   0.5000000  -0.2500000   0.7500000), wk =   0.0937500
        k(   25) = (   0.7500000  -0.2500000   1.0000000), wk =   0.0937500
        k(   26) = (   0.6250000  -0.1250000   0.8750000), wk =   0.1875000
        k(   27) = (   0.5000000   0.0000000   0.7500000), wk =   0.0937500
        k(   28) = (  -0.2500000  -1.0000000   0.0000000), wk =   0.0468750
        k(   29) = (  -0.5000000  -1.0000000   0.0000000), wk =   0.0234375

     Dense  grid:    31951 G-vectors     FFT dimensions: (  45,  45,  45)

     Smooth grid:     6183 G-vectors     FFT dimensions: (  25,  25,  25)

     Estimated max dynamical RAM per process >     123.55 MB

     Initial potential from superposition of free atoms

     starting charge       7.9995, renormalised to       8.0000
     Starting wfcs are    8 randomized atomic wfcs

     total cpu time spent up to now is        4.4 secs

     Self-consistent Calculation

     iteration #  1     ecut=    40.00 Ry     beta= 0.70
     CG style diagonalization
     ethr =  1.00E-02,  avg # of iterations =  2.6

     total cpu time spent up to now is        5.5 secs

     total energy              =     -46.62597806 Ry
     estimated scf accuracy    <       0.14707201 Ry

     iteration #  2     ecut=    40.00 Ry     beta= 0.70
     CG style diagonalization
     ethr =  1.84E-03,  avg # of iterations =  4.1

     total cpu time spent up to now is        6.8 secs

     total energy              =     -46.65796399 Ry
     estimated scf accuracy    <       0.03302954 Ry

     iteration #  3     ecut=    40.00 Ry     beta= 0.70
     CG style diagonalization
     ethr =  4.13E-04,  avg # of iterations =  4.1

     total cpu time spent up to now is        8.1 secs

     total energy              =     -46.66494125 Ry
     estimated scf accuracy    <       0.00041608 Ry

     iteration #  4     ecut=    40.00 Ry     beta= 0.70
     CG style diagonalization
     ethr =  5.20E-06,  avg # of iterations =  4.5

     total cpu time spent up to now is        9.5 secs

     total energy              =     -46.66517880 Ry
     estimated scf accuracy    <       0.00009412 Ry

     iteration #  5     ecut=    40.00 Ry     beta= 0.70
     CG style diagonalization
     ethr =  1.18E-06,  avg # of iterations =  4.0

     total cpu time spent up to now is       10.7 secs

     total energy              =     -46.66519964 Ry
     estimated scf accuracy    <       0.00000122 Ry

     iteration #  6     ecut=    40.00 Ry     beta= 0.70
     CG style diagonalization
     ethr =  1.53E-08,  avg # of iterations =  5.8

     total cpu time spent up to now is       12.3 secs

     total energy              =     -46.66520164 Ry
     estimated scf accuracy    <       0.00000004 Ry

     iteration #  7     ecut=    40.00 Ry     beta= 0.70
     CG style diagonalization
     ethr =  5.32E-10,  avg # of iterations =  5.2

     total cpu time spent up to now is       13.7 secs

     total energy              =     -46.66520167 Ry
     estimated scf accuracy    <       0.00000004 Ry

     iteration #  8     ecut=    40.00 Ry     beta= 0.70
     CG style diagonalization
     ethr =  5.32E-10,  avg # of iterations =  4.1

     total cpu time spent up to now is       15.0 secs

     End of self-consistent calculation

          k = 0.0000 0.0000 0.0000 (   749 PWs)   bands (ev):

    -6.6681   8.8976   8.8976   8.8976

          k =-0.1250 0.1250-0.1250 (   779 PWs)   bands (ev):

    -6.4078   6.9164   8.4518   8.4518

          k =-0.2500 0.2500-0.2500 (   778 PWs)   bands (ev):

    -5.6493   3.9018   7.7318   7.7318

          k =-0.3750 0.3750-0.3750 (   769 PWs)   bands (ev):

    -4.5188   1.2779   7.2276   7.2276

          k = 0.5000-0.5000 0.5000 (   778 PWs)   bands (ev):

    -3.7321  -0.0216   7.0533   7.0533

          k = 0.0000 0.2500 0.0000 (   777 PWs)   bands (ev):

    -6.3206   7.4647   7.7118   7.7118

          k =-0.1250 0.3750-0.1250 (   781 PWs)   bands (ev):

    -5.7252   4.8968   6.9598   7.2436

          k =-0.2500 0.5000-0.2500 (   783 PWs)   bands (ev):

    -4.6968   2.1959   6.4498   6.5492

          k = 0.6250-0.3750 0.6250 (   773 PWs)   bands (ev):

    -3.6409   0.3313   5.8299   6.5606

          k = 0.5000-0.2500 0.5000 (   778 PWs)   bands (ev):

    -3.9331   0.7931   5.5643   6.9742

          k = 0.3750-0.1250 0.3750 (   781 PWs)   bands (ev):

    -5.0805   3.0582   5.7410   7.6874

          k = 0.2500 0.0000 0.2500 (   775 PWs)   bands (ev):

    -5.9799   5.6152   6.6037   8.4104

          k = 0.0000 0.5000 0.0000 (   769 PWs)   bands (ev):

    -5.2990   4.7943   6.1445   6.1445

          k =-0.1250 0.6250-0.1250 (   775 PWs)   bands (ev):

    -4.4179   2.9151   5.1826   5.6774

          k = 0.7500-0.2500 0.7500 (   768 PWs)   bands (ev):

    -3.3233   1.0904   4.0860   5.6676

          k = 0.6250-0.1250 0.6250 (   773 PWs)   bands (ev):

    -3.0940   0.7951   3.4478   6.1110

          k = 0.5000 0.0000 0.5000 (   784 PWs)   bands (ev):

    -4.0999   2.1918   3.7127   6.8996

          k = 0.0000 0.7500 0.0000 (   777 PWs)   bands (ev):

    -3.7096   2.0223   5.1065   5.1065

          k = 0.8750-0.1250 0.8750 (   766 PWs)   bands (ev):

    -2.7758   0.8725   4.0308   4.9916

          k = 0.7500 0.0000 0.7500 (   762 PWs)   bands (ev):

    -2.4262   0.6639   2.8259   5.3532

          k = 0.0000-1.0000 0.0000 (   774 PWs)   bands (ev):

    -2.3879   0.2733   4.7498   4.7498

          k =-0.2500 0.5000 0.0000 (   776 PWs)   bands (ev):

    -4.9854   3.6630   5.1128   6.8459

          k = 0.6250-0.3750 0.8750 (   775 PWs)   bands (ev):

    -3.8930   1.6541   4.3908   6.1132

          k = 0.5000-0.2500 0.7500 (   764 PWs)   bands (ev):

    -3.1464   0.4953   4.2728   5.7685

          k = 0.7500-0.2500 1.0000 (   763 PWs)   bands (ev):

    -3.4732   1.7792   4.1797   4.9494

          k = 0.6250-0.1250 0.8750 (   762 PWs)   bands (ev):

    -2.5979   0.8425   3.2217   4.6821

          k = 0.5000 0.0000 0.7500 (   769 PWs)   bands (ev):

    -2.9017   1.1536   2.9823   5.2139

          k =-0.2500-1.0000 0.0000 (   770 PWs)   bands (ev):

    -2.3049   0.4812   3.9934   4.1071

          k =-0.5000-1.0000 0.0000 (   772 PWs)   bands (ev):

    -2.2158   0.7554   3.3020   3.5915

     highest occupied level (ev):     8.8976

!    total energy              =     -46.66520168 Ry
     estimated scf accuracy    <          2.1E-09 Ry

     The total energy is the sum of the following terms:
     one-electron contribution =       6.79136558 Ry
     hartree contribution      =       1.23578751 Ry
     xc contribution           =     -34.63714216 Ry
     ewald contribution        =     -20.05521261 Ry

     convergence has been achieved in   8 iterations

     Forces acting on atoms (cartesian axes, Ry/au):

     atom    1 type  1   force =     0.00000000    0.00000000    0.00000000
     atom    2 type  2   force =     0.00000000    0.00000000   -0.00000000

     Total force =     0.000000     Total SCF correction =     0.000000


     Computing stress (Cartesian axis) and pressure

          total   stress  (Ry/bohr**3)                   (kbar)     P=       64.92
   0.00044134  -0.00000000   0.00000000           64.92       -0.00        0.00
  -0.00000000   0.00044134  -0.00000000           -0.00       64.92       -0.00
   0.00000000  -0.00000000   0.00044134            0.00       -0.00       64.92


     Writing all to output data dir ./bas.save/
 
     init_run     :      2.08s CPU      2.52s WALL (       1 calls)
     electrons    :      9.70s CPU     10.69s WALL (       1 calls)
     forces       :      0.42s CPU      0.45s WALL (       1 calls)
     stress       :      2.63s CPU      2.75s WALL (       1 calls)

     Called by init_run:
     wfcinit      :      0.28s CPU      0.41s WALL (       1 calls)
     potinit      :      0.15s CPU      0.20s WALL (       1 calls)
     hinit0       :      1.42s CPU      1.55s WALL (       1 calls)

     Called by electrons:
     c_bands      :      4.88s CPU      5.41s WALL (       8 calls)
     sum_band     :      2.38s CPU      2.56s WALL (       8 calls)
     v_of_rho     :      1.21s CPU      1.25s WALL (       9 calls)
     newd         :      1.43s CPU      1.64s WALL (       9 calls)
     mix_rho      :      0.06s CPU      0.06s WALL (       8 calls)

     Called by c_bands:
     init_us_2    :      0.53s CPU      0.57s WALL (     551 calls)
     init_us_2:cp :      0.52s CPU      0.56s WALL (     551 calls)
     ccgdiagg     :      3.80s CPU      4.23s WALL (     232 calls)
     wfcrot       :      1.01s CPU      1.14s WALL (     232 calls)

     Called by *cgdiagg:
     h_psi        :      3.83s CPU      4.22s WALL (    3411 calls)
     s_psi        :      0.29s CPU      0.32s WALL (    6590 calls)

     Called by h_psi:
     h_psi:calbec :      0.28s CPU      0.36s WALL (    3411 calls)
     vloc_psi     :      3.19s CPU      3.48s WALL (    3411 calls)
     add_vuspsi   :      0.19s CPU      0.21s WALL (    3411 calls)
     hs_1psi      :      3.25s CPU      3.59s WALL (    3179 calls)
     s_1psi       :      0.37s CPU      0.41s WALL (    3179 calls)

     General routines
     calbec       :      0.41s CPU      0.50s WALL (    6967 calls)
     fft          :      0.34s CPU      0.37s WALL (     140 calls)
     ffts         :      0.01s CPU      0.01s WALL (      17 calls)
     fftw         :      3.06s CPU      3.31s WALL (    9374 calls)
     interpolate  :      0.03s CPU      0.03s WALL (       9 calls)
 
     Parallel routines
 
     PWSCF        :     15.65s CPU     18.97s WALL

 
   This run was terminated on:  13:53:33  20Feb2022            

=------------------------------------------------------------------------------=
   JOB DONE.
=------------------------------------------------------------------------------=
