
     Program PWSCF v.7.0 starts on  6Mar2022 at 12: 5:22 

     This program is part of the open-source Quantum ESPRESSO suite
     for quantum simulation of materials; please cite
         "P. Giannozzi et al., J. Phys.:Condens. Matter 21 395502 (2009);
         "P. Giannozzi et al., J. Phys.:Condens. Matter 29 465901 (2017);
         "P. Giannozzi et al., J. Chem. Phys. 152 154105 (2020);
          URL http://www.quantum-espresso.org", 
     in publications or presentations arising from this work. More details at
     http://www.quantum-espresso.org/quote

     Parallel version (MPI), running on     1 processors

     MPI processes distributed on     1 nodes
     85181 MiB available memory on the printing compute node when the environment starts
 
     Waiting for input...
     Reading input from standard input
Warning: card &CELL ignored
Warning: card  CELL_DYNAMICS = 'BFGS', ignored
Warning: card  PRESS=0.1D0, ignored
Warning: card / ignored

     Current dimensions of program PWSCF are:
     Max number of different atomic species (ntypx) = 10
     Max number of k-points (npk) =  40000
     Max angular momentum in pseudopotentials (lmaxx) =  4

     Subspace diagonalization in iterative solution of the eigenvalue problem:
     a serial algorithm will be used

 
     G-vector sticks info
     --------------------
     sticks:   dense  smooth     PW     G-vecs:    dense   smooth      PW
     Sum        1417    1417    397                35749    35749    5209
 
     Using Slab Decomposition
 


     bravais-lattice index     =            2
     lattice parameter (alat)  =      10.2000  a.u.
     unit-cell volume          =     265.3020 (a.u.)^3
     number of atoms/cell      =            2
     number of atomic types    =            1
     number of electrons       =         8.00
     number of Kohn-Sham states=            4
     kinetic-energy cutoff     =     100.0000  Ry
     charge density cutoff     =     400.0000  Ry
     scf convergence threshold =      1.0E-08
     mixing beta               =       0.7000
     number of iterations used =            8  plain     mixing
     Exchange-correlation= SLA  PZ   NOGX NOGC
                           (   1   1   0   0   0   0   0)

     celldm(1)=  10.200000  celldm(2)=   0.000000  celldm(3)=   0.000000
     celldm(4)=   0.000000  celldm(5)=   0.000000  celldm(6)=   0.000000

     crystal axes: (cart. coord. in units of alat)
               a(1) = (  -0.500000   0.000000   0.500000 )  
               a(2) = (   0.000000   0.500000   0.500000 )  
               a(3) = (  -0.500000   0.500000   0.000000 )  

     reciprocal axes: (cart. coord. in units 2 pi/alat)
               b(1) = ( -1.000000 -1.000000  1.000000 )  
               b(2) = (  1.000000  1.000000  1.000000 )  
               b(3) = ( -1.000000  1.000000 -1.000000 )  


     PseudoPot. # 1 for Si read from file:
     ./Si_LDA.UPF
     MD5 check sum: b5ade7b37ee992b02096e360e546dc2d
     Pseudo is Ultrasoft + core correction, Zval =  4.0
     Generated by new atomic code, or converted to UPF format
     Using radial grid of  899 points,  6 beta functions with: 
                l(1) =   0
                l(2) =   0
                l(3) =   1
                l(4) =   1
                l(5) =   2
                l(6) =   2
     Q(r) pseudized with  8 coefficients,  rinner =    0.900   0.900   0.900
                                                       0.900   0.900

     atomic species   valence    mass     pseudopotential
        Si             4.00    28.08550     Si( 1.00)

     48 Sym. Ops., with inversion, found (24 have fractional translation)



   Cartesian axes

     site n.     atom                  positions (alat units)
         1           Si  tau(   1) = (   0.0000000   0.0000000   0.0000000  )
         2           Si  tau(   2) = (  -0.2500000   0.2500000   0.2500000  )

     number of k points=     4
                       cart. coord. in units 2pi/alat
        k(    1) = (   0.0000000   0.0000000   0.0000000), wk =   0.0740741
        k(    2) = (  -0.3333333   0.3333333  -0.3333333), wk =   0.5925926
        k(    3) = (   0.0000000   0.6666667   0.0000000), wk =   0.4444444
        k(    4) = (   0.6666667  -0.0000000   0.6666667), wk =   0.8888889

     Dense  grid:    35749 G-vectors     FFT dimensions: (  45,  45,  45)

     Estimated max dynamical RAM per process >     136.20 MB

     Initial potential from superposition of free atoms

     starting charge       7.9988, renormalised to       8.0000
     Starting wfcs are    8 randomized atomic wfcs

     total cpu time spent up to now is        2.2 secs

     Self-consistent Calculation

     iteration #  1     ecut=   100.00 Ry     beta= 0.70
     CG style diagonalization
     ethr =  1.00E-02,  avg # of iterations =  3.0

     Threshold (ethr) on eigenvalues was too large:
     Diagonalizing with lowered threshold

     CG style diagonalization
     ethr =  9.45E-04,  avg # of iterations =  2.0

     total cpu time spent up to now is        3.7 secs

     total energy              =     -19.20851826 Ry
     estimated scf accuracy    <       0.07611707 Ry

     iteration #  2     ecut=   100.00 Ry     beta= 0.70
     CG style diagonalization
     ethr =  9.51E-04,  avg # of iterations =  3.0

     total cpu time spent up to now is        4.6 secs

     total energy              =     -19.21222956 Ry
     estimated scf accuracy    <       0.00251514 Ry

     iteration #  3     ecut=   100.00 Ry     beta= 0.70
     CG style diagonalization
     ethr =  3.14E-05,  avg # of iterations =  3.7

     total cpu time spent up to now is        5.6 secs

     total energy              =     -19.21274673 Ry
     estimated scf accuracy    <       0.00007109 Ry

     iteration #  4     ecut=   100.00 Ry     beta= 0.70
     CG style diagonalization
     ethr =  8.89E-07,  avg # of iterations =  4.4

     total cpu time spent up to now is        6.7 secs

     total energy              =     -19.21279299 Ry
     estimated scf accuracy    <       0.00000972 Ry

     iteration #  5     ecut=   100.00 Ry     beta= 0.70
     CG style diagonalization
     ethr =  1.21E-07,  avg # of iterations =  4.1

     total cpu time spent up to now is        7.7 secs

     total energy              =     -19.21279554 Ry
     estimated scf accuracy    <       0.00000010 Ry

     iteration #  6     ecut=   100.00 Ry     beta= 0.70
     CG style diagonalization
     ethr =  1.24E-09,  avg # of iterations =  5.6

     total cpu time spent up to now is        9.0 secs

     total energy              =     -19.21279572 Ry
     estimated scf accuracy    <       0.00000002 Ry

     iteration #  7     ecut=   100.00 Ry     beta= 0.70
     CG style diagonalization
     ethr =  2.03E-10,  avg # of iterations =  3.6

     total cpu time spent up to now is        9.9 secs

     End of self-consistent calculation

          k = 0.0000 0.0000 0.0000 (  4477 PWs)   bands (ev):

    -5.8110   6.3093   6.3093   6.3093

          k =-0.3333 0.3333-0.3333 (  4462 PWs)   bands (ev):

    -4.4049   0.8711   5.2846   5.2846

          k = 0.0000 0.6667 0.0000 (  4512 PWs)   bands (ev):

    -3.8714   1.2637   3.8209   3.8209

          k = 0.6667-0.0000 0.6667 (  4466 PWs)   bands (ev):

    -2.4697  -0.5335   1.7272   4.1385

     highest occupied level (ev):     6.3093

!    total energy              =     -19.21279573 Ry
     estimated scf accuracy    <          3.2E-10 Ry

     The total energy is the sum of the following terms:
     one-electron contribution =       5.19830740 Ry
     hartree contribution      =       1.15632261 Ry
     xc contribution           =      -8.66766716 Ry
     ewald contribution        =     -16.89975857 Ry

     convergence has been achieved in   7 iterations

     Forces acting on atoms (cartesian axes, Ry/au):

     atom    1 type  1   force =     0.00000000   -0.00000000    0.00000000
     atom    2 type  1   force =     0.00000000   -0.00000000   -0.00000000

     Total force =     0.000000     Total SCF correction =     0.000000


     Computing stress (Cartesian axis) and pressure

          total   stress  (Ry/bohr**3)                   (kbar)     P=       21.58
   0.00014668   0.00000000   0.00000000           21.58        0.00        0.00
   0.00000000   0.00014668  -0.00000000            0.00       21.58       -0.00
   0.00000000  -0.00000000   0.00014668            0.00       -0.00       21.58


     Writing all to output data dir ./Si.save/
 
     init_run     :      1.55s CPU      1.61s WALL (       1 calls)
     electrons    :      7.21s CPU      7.76s WALL (       1 calls)
     forces       :      0.31s CPU      0.34s WALL (       1 calls)
     stress       :      2.25s CPU      2.32s WALL (       1 calls)

     Called by init_run:
     wfcinit      :      0.25s CPU      0.26s WALL (       1 calls)
     potinit      :      0.03s CPU      0.03s WALL (       1 calls)
     hinit0       :      1.02s CPU      1.04s WALL (       1 calls)

     Called by electrons:
     c_bands      :      3.60s CPU      3.79s WALL (       8 calls)
     sum_band     :      2.21s CPU      2.38s WALL (       8 calls)
     v_of_rho     :      0.18s CPU      0.19s WALL (       8 calls)
     newd         :      1.34s CPU      1.49s WALL (       8 calls)
     mix_rho      :      0.06s CPU      0.07s WALL (       8 calls)

     Called by c_bands:
     init_us_2    :      0.34s CPU      0.35s WALL (      76 calls)
     init_us_2:cp :      0.34s CPU      0.35s WALL (      76 calls)
     ccgdiagg     :      2.81s CPU      2.93s WALL (      32 calls)
     wfcrot       :      0.83s CPU      0.84s WALL (      28 calls)

     Called by *cgdiagg:
     h_psi        :      3.03s CPU      3.12s WALL (     402 calls)
     s_psi        :      0.30s CPU      0.34s WALL (     776 calls)

     Called by h_psi:
     h_psi:calbec :      0.17s CPU      0.17s WALL (     402 calls)
     vloc_psi     :      2.66s CPU      2.72s WALL (     402 calls)
     add_vuspsi   :      0.18s CPU      0.19s WALL (     402 calls)
     hs_1psi      :      2.44s CPU      2.53s WALL (     374 calls)
     s_1psi       :      0.28s CPU      0.31s WALL (     374 calls)

     General routines
     calbec       :      0.31s CPU      0.34s WALL (     828 calls)
     fft          :      0.10s CPU      0.10s WALL (      41 calls)
     ffts         :      0.02s CPU      0.02s WALL (       8 calls)
     fftw         :      2.59s CPU      2.64s WALL (    1132 calls)
 
     Parallel routines
 
     PWSCF        :     11.81s CPU     12.79s WALL

 
   This run was terminated on:  12: 5:34   6Mar2022            

=------------------------------------------------------------------------------=
   JOB DONE.
=------------------------------------------------------------------------------=
