
     Program PWSCF v.7.0 starts on  6Mar2022 at 12: 5: 9 

     This program is part of the open-source Quantum ESPRESSO suite
     for quantum simulation of materials; please cite
         "P. Giannozzi et al., J. Phys.:Condens. Matter 21 395502 (2009);
         "P. Giannozzi et al., J. Phys.:Condens. Matter 29 465901 (2017);
         "P. Giannozzi et al., J. Chem. Phys. 152 154105 (2020);
          URL http://www.quantum-espresso.org", 
     in publications or presentations arising from this work. More details at
     http://www.quantum-espresso.org/quote

     Parallel version (MPI), running on     1 processors

     MPI processes distributed on     1 nodes
     85184 MiB available memory on the printing compute node when the environment starts
 
     Waiting for input...
     Reading input from standard input
Warning: card &CELL ignored
Warning: card  CELL_DYNAMICS = 'BFGS', ignored
Warning: card  PRESS=0.1D0, ignored
Warning: card / ignored

     Current dimensions of program PWSCF are:
     Max number of different atomic species (ntypx) = 10
     Max number of k-points (npk) =  40000
     Max angular momentum in pseudopotentials (lmaxx) =  4

     Subspace diagonalization in iterative solution of the eigenvalue problem:
     a serial algorithm will be used

 
     G-vector sticks info
     --------------------
     sticks:   dense  smooth     PW     G-vecs:    dense   smooth      PW
     Sum        1285    1285    367                30731    30731    4621
 
     Using Slab Decomposition
 


     bravais-lattice index     =            2
     lattice parameter (alat)  =      10.2000  a.u.
     unit-cell volume          =     265.3020 (a.u.)^3
     number of atoms/cell      =            2
     number of atomic types    =            1
     number of electrons       =         8.00
     number of Kohn-Sham states=            4
     kinetic-energy cutoff     =      90.0000  Ry
     charge density cutoff     =     360.0000  Ry
     scf convergence threshold =      1.0E-08
     mixing beta               =       0.7000
     number of iterations used =            8  plain     mixing
     Exchange-correlation= SLA  PZ   NOGX NOGC
                           (   1   1   0   0   0   0   0)

     celldm(1)=  10.200000  celldm(2)=   0.000000  celldm(3)=   0.000000
     celldm(4)=   0.000000  celldm(5)=   0.000000  celldm(6)=   0.000000

     crystal axes: (cart. coord. in units of alat)
               a(1) = (  -0.500000   0.000000   0.500000 )  
               a(2) = (   0.000000   0.500000   0.500000 )  
               a(3) = (  -0.500000   0.500000   0.000000 )  

     reciprocal axes: (cart. coord. in units 2 pi/alat)
               b(1) = ( -1.000000 -1.000000  1.000000 )  
               b(2) = (  1.000000  1.000000  1.000000 )  
               b(3) = ( -1.000000  1.000000 -1.000000 )  


     PseudoPot. # 1 for Si read from file:
     ./Si_LDA.UPF
     MD5 check sum: b5ade7b37ee992b02096e360e546dc2d
     Pseudo is Ultrasoft + core correction, Zval =  4.0
     Generated by new atomic code, or converted to UPF format
     Using radial grid of  899 points,  6 beta functions with: 
                l(1) =   0
                l(2) =   0
                l(3) =   1
                l(4) =   1
                l(5) =   2
                l(6) =   2
     Q(r) pseudized with  8 coefficients,  rinner =    0.900   0.900   0.900
                                                       0.900   0.900

     atomic species   valence    mass     pseudopotential
        Si             4.00    28.08550     Si( 1.00)

     48 Sym. Ops., with inversion, found (24 have fractional translation)



   Cartesian axes

     site n.     atom                  positions (alat units)
         1           Si  tau(   1) = (   0.0000000   0.0000000   0.0000000  )
         2           Si  tau(   2) = (  -0.2500000   0.2500000   0.2500000  )

     number of k points=     4
                       cart. coord. in units 2pi/alat
        k(    1) = (   0.0000000   0.0000000   0.0000000), wk =   0.0740741
        k(    2) = (  -0.3333333   0.3333333  -0.3333333), wk =   0.5925926
        k(    3) = (   0.0000000   0.6666667   0.0000000), wk =   0.4444444
        k(    4) = (   0.6666667  -0.0000000   0.6666667), wk =   0.8888889

     Dense  grid:    30731 G-vectors     FFT dimensions: (  45,  45,  45)

     Estimated max dynamical RAM per process >     118.08 MB

     Initial potential from superposition of free atoms

     starting charge       7.9988, renormalised to       8.0000
     Starting wfcs are    8 randomized atomic wfcs

     total cpu time spent up to now is        2.1 secs

     Self-consistent Calculation

     iteration #  1     ecut=    90.00 Ry     beta= 0.70
     CG style diagonalization
     ethr =  1.00E-02,  avg # of iterations =  3.0

     Threshold (ethr) on eigenvalues was too large:
     Diagonalizing with lowered threshold

     CG style diagonalization
     ethr =  9.45E-04,  avg # of iterations =  2.0

     total cpu time spent up to now is        3.5 secs

     total energy              =     -19.20852766 Ry
     estimated scf accuracy    <       0.07612250 Ry

     iteration #  2     ecut=    90.00 Ry     beta= 0.70
     CG style diagonalization
     ethr =  9.52E-04,  avg # of iterations =  3.0

     total cpu time spent up to now is        4.4 secs

     total energy              =     -19.21223623 Ry
     estimated scf accuracy    <       0.00251437 Ry

     iteration #  3     ecut=    90.00 Ry     beta= 0.70
     CG style diagonalization
     ethr =  3.14E-05,  avg # of iterations =  3.7

     total cpu time spent up to now is        5.3 secs

     total energy              =     -19.21274643 Ry
     estimated scf accuracy    <       0.00007073 Ry

     iteration #  4     ecut=    90.00 Ry     beta= 0.70
     CG style diagonalization
     ethr =  8.84E-07,  avg # of iterations =  4.5

     total cpu time spent up to now is        6.3 secs

     total energy              =     -19.21279091 Ry
     estimated scf accuracy    <       0.00000940 Ry

     iteration #  5     ecut=    90.00 Ry     beta= 0.70
     CG style diagonalization
     ethr =  1.18E-07,  avg # of iterations =  4.1

     total cpu time spent up to now is        7.2 secs

     total energy              =     -19.21279334 Ry
     estimated scf accuracy    <       0.00000009 Ry

     iteration #  6     ecut=    90.00 Ry     beta= 0.70
     CG style diagonalization
     ethr =  1.13E-09,  avg # of iterations =  5.4

     total cpu time spent up to now is        8.3 secs

     End of self-consistent calculation

          k = 0.0000 0.0000 0.0000 (  3839 PWs)   bands (ev):

    -5.8111   6.3092   6.3092   6.3092

          k =-0.3333 0.3333-0.3333 (  3801 PWs)   bands (ev):

    -4.4049   0.8711   5.2845   5.2845

          k = 0.0000 0.6667 0.0000 (  3856 PWs)   bands (ev):

    -3.8715   1.2636   3.8208   3.8208

          k = 0.6667-0.0000 0.6667 (  3833 PWs)   bands (ev):

    -2.4698  -0.5336   1.7271   4.1384

     highest occupied level (ev):     6.3092

!    total energy              =     -19.21279347 Ry
     estimated scf accuracy    <          6.1E-09 Ry

     The total energy is the sum of the following terms:
     one-electron contribution =       5.19828997 Ry
     hartree contribution      =       1.15636377 Ry
     xc contribution           =      -8.66768863 Ry
     ewald contribution        =     -16.89975857 Ry

     convergence has been achieved in   6 iterations

     Forces acting on atoms (cartesian axes, Ry/au):

     atom    1 type  1   force =    -0.00000000   -0.00000000   -0.00000000
     atom    2 type  1   force =    -0.00000000   -0.00000000   -0.00000000

     Total force =     0.000000     Total SCF correction =     0.000000


     Computing stress (Cartesian axis) and pressure

          total   stress  (Ry/bohr**3)                   (kbar)     P=       21.60
   0.00014685   0.00000000   0.00000000           21.60        0.00        0.00
   0.00000000   0.00014685  -0.00000000            0.00       21.60       -0.00
   0.00000000  -0.00000000   0.00014685            0.00       -0.00       21.60


     Writing all to output data dir ./Si.save/
 
     init_run     :      1.49s CPU      1.54s WALL (       1 calls)
     electrons    :      5.78s CPU      6.22s WALL (       1 calls)
     forces       :      0.28s CPU      0.30s WALL (       1 calls)
     stress       :      1.96s CPU      2.01s WALL (       1 calls)

     Called by init_run:
     wfcinit      :      0.24s CPU      0.25s WALL (       1 calls)
     potinit      :      0.03s CPU      0.03s WALL (       1 calls)
     hinit0       :      1.00s CPU      1.01s WALL (       1 calls)

     Called by electrons:
     c_bands      :      3.00s CPU      3.17s WALL (       7 calls)
     sum_band     :      1.71s CPU      1.84s WALL (       7 calls)
     v_of_rho     :      0.15s CPU      0.16s WALL (       7 calls)
     newd         :      1.03s CPU      1.15s WALL (       7 calls)
     mix_rho      :      0.04s CPU      0.05s WALL (       7 calls)

     Called by c_bands:
     init_us_2    :      0.26s CPU      0.27s WALL (      68 calls)
     init_us_2:cp :      0.26s CPU      0.27s WALL (      68 calls)
     ccgdiagg     :      2.38s CPU      2.48s WALL (      28 calls)
     wfcrot       :      0.69s CPU      0.71s WALL (      24 calls)

     Called by *cgdiagg:
     h_psi        :      2.60s CPU      2.68s WALL (     355 calls)
     s_psi        :      0.23s CPU      0.26s WALL (     686 calls)

     Called by h_psi:
     h_psi:calbec :      0.13s CPU      0.13s WALL (     355 calls)
     vloc_psi     :      2.31s CPU      2.37s WALL (     355 calls)
     add_vuspsi   :      0.13s CPU      0.14s WALL (     355 calls)
     hs_1psi      :      2.09s CPU      2.16s WALL (     331 calls)
     s_1psi       :      0.22s CPU      0.24s WALL (     331 calls)

     General routines
     calbec       :      0.24s CPU      0.27s WALL (     734 calls)
     fft          :      0.09s CPU      0.09s WALL (      37 calls)
     ffts         :      0.02s CPU      0.02s WALL (       7 calls)
     fftw         :      2.26s CPU      2.30s WALL (     998 calls)
 
     Parallel routines
 
     PWSCF        :     10.01s CPU     10.84s WALL

 
   This run was terminated on:  12: 5:20   6Mar2022            

=------------------------------------------------------------------------------=
   JOB DONE.
=------------------------------------------------------------------------------=
