
     Program PWSCF v.7.0 starts on  8Mar2022 at 15:23: 3 

     This program is part of the open-source Quantum ESPRESSO suite
     for quantum simulation of materials; please cite
         "P. Giannozzi et al., J. Phys.:Condens. Matter 21 395502 (2009);
         "P. Giannozzi et al., J. Phys.:Condens. Matter 29 465901 (2017);
         "P. Giannozzi et al., J. Chem. Phys. 152 154105 (2020);
          URL http://www.quantum-espresso.org", 
     in publications or presentations arising from this work. More details at
     http://www.quantum-espresso.org/quote

     Parallel version (MPI), running on     1 processors

     MPI processes distributed on     1 nodes
     88996 MiB available memory on the printing compute node when the environment starts
 
     Waiting for input...
     Reading input from standard input
Warning: card &CELL ignored
Warning: card  CELL_DYNAMICS = 'BFGS', ignored
Warning: card  PRESS=0.1D0, ignored
Warning: card / ignored

     Current dimensions of program PWSCF are:
     Max number of different atomic species (ntypx) = 10
     Max number of k-points (npk) =  40000
     Max angular momentum in pseudopotentials (lmaxx) =  4
     Message from routine setup:
     using ibrav=0 with symmetry is DISCOURAGED, use correct ibrav instead

     Subspace diagonalization in iterative solution of the eigenvalue problem:
     a serial algorithm will be used

 
     G-vector sticks info
     --------------------
     sticks:   dense  smooth     PW     G-vecs:    dense   smooth      PW
     Sum        1069     433    139                23409     5961    1067
 
     Using Slab Decomposition
 


     bravais-lattice index     =            0
     lattice parameter (alat)  =      10.1941  a.u.
     unit-cell volume          =     266.4341 (a.u.)^3
     number of atoms/cell      =            2
     number of atomic types    =            1
     number of electrons       =         8.00
     number of Kohn-Sham states=            8
     kinetic-energy cutoff     =      30.0000  Ry
     charge density cutoff     =     300.0000  Ry
     scf convergence threshold =      1.0E-08
     mixing beta               =       0.7000
     number of iterations used =            8  plain     mixing
     Exchange-correlation= SLA  PZ   NOGX NOGC
                           (   1   1   0   0   0   0   0)

     celldm(1)=  10.194100  celldm(2)=   0.000000  celldm(3)=   0.000000
     celldm(4)=   0.000000  celldm(5)=   0.000000  celldm(6)=   0.000000

     crystal axes: (cart. coord. in units of alat)
               a(1) = (  -0.501000   0.000000   0.501000 )  
               a(2) = (   0.000000   0.501000   0.501000 )  
               a(3) = (  -0.501000   0.501000   0.000000 )  

     reciprocal axes: (cart. coord. in units 2 pi/alat)
               b(1) = ( -0.998004 -0.998004  0.998004 )  
               b(2) = (  0.998004  0.998004  0.998004 )  
               b(3) = ( -0.998004  0.998004 -0.998004 )  


     PseudoPot. # 1 for Si read from file:
     ./Si_LDA.UPF
     MD5 check sum: b5ade7b37ee992b02096e360e546dc2d
     Pseudo is Ultrasoft + core correction, Zval =  4.0
     Generated by new atomic code, or converted to UPF format
     Using radial grid of  899 points,  6 beta functions with: 
                l(1) =   0
                l(2) =   0
                l(3) =   1
                l(4) =   1
                l(5) =   2
                l(6) =   2
     Q(r) pseudized with  8 coefficients,  rinner =    0.900   0.900   0.900
                                                       0.900   0.900

     atomic species   valence    mass     pseudopotential
        Si             4.00    28.08550     Si( 1.00)

     48 Sym. Ops., with inversion, found (24 have fractional translation)



   Cartesian axes

     site n.     atom                  positions (alat units)
         1           Si  tau(   1) = (   0.0000000   0.0000000   0.0000000  )
         2           Si  tau(   2) = (  -0.2505000   0.2505000   0.2505000  )

     number of k points=    29
                       cart. coord. in units 2pi/alat
        k(    1) = (   0.0000000   0.0000000   0.0000000), wk =   0.0039062
        k(    2) = (  -0.1247505   0.1247505  -0.1247505), wk =   0.0312500
        k(    3) = (  -0.2495010   0.2495010  -0.2495010), wk =   0.0312500
        k(    4) = (  -0.3742515   0.3742515  -0.3742515), wk =   0.0312500
        k(    5) = (   0.4990020  -0.4990020   0.4990020), wk =   0.0156250
        k(    6) = (   0.0000000   0.2495010   0.0000000), wk =   0.0234375
        k(    7) = (  -0.1247505   0.3742515  -0.1247505), wk =   0.0937500
        k(    8) = (  -0.2495010   0.4990020  -0.2495010), wk =   0.0937500
        k(    9) = (   0.6237525  -0.3742515   0.6237525), wk =   0.0937500
        k(   10) = (   0.4990020  -0.2495010   0.4990020), wk =   0.0937500
        k(   11) = (   0.3742515  -0.1247505   0.3742515), wk =   0.0937500
        k(   12) = (   0.2495010   0.0000000   0.2495010), wk =   0.0468750
        k(   13) = (   0.0000000   0.4990020   0.0000000), wk =   0.0234375
        k(   14) = (  -0.1247505   0.6237525  -0.1247505), wk =   0.0937500
        k(   15) = (   0.7485030  -0.2495010   0.7485030), wk =   0.0937500
        k(   16) = (   0.6237525  -0.1247505   0.6237525), wk =   0.0937500
        k(   17) = (   0.4990020   0.0000000   0.4990020), wk =   0.0468750
        k(   18) = (   0.0000000   0.7485030   0.0000000), wk =   0.0234375
        k(   19) = (   0.8732535  -0.1247505   0.8732535), wk =   0.0937500
        k(   20) = (   0.7485030   0.0000000   0.7485030), wk =   0.0468750
        k(   21) = (   0.0000000  -0.9980040   0.0000000), wk =   0.0117188
        k(   22) = (  -0.2495010   0.4990020   0.0000000), wk =   0.0937500
        k(   23) = (   0.6237525  -0.3742515   0.8732535), wk =   0.1875000
        k(   24) = (   0.4990020  -0.2495010   0.7485030), wk =   0.0937500
        k(   25) = (   0.7485030  -0.2495010   0.9980040), wk =   0.0937500
        k(   26) = (   0.6237525  -0.1247505   0.8732535), wk =   0.1875000
        k(   27) = (   0.4990020   0.0000000   0.7485030), wk =   0.0937500
        k(   28) = (  -0.2495010  -0.9980040  -0.0000000), wk =   0.0468750
        k(   29) = (  -0.4990020  -0.9980040   0.0000000), wk =   0.0234375

     Dense  grid:    23409 G-vectors     FFT dimensions: (  40,  40,  40)

     Smooth grid:     5961 G-vectors     FFT dimensions: (  25,  25,  25)

     Estimated max dynamical RAM per process >      90.29 MB

     Initial potential from superposition of free atoms

     starting charge       7.9988, renormalised to       8.0000
     Starting wfcs are    8 randomized atomic wfcs

     total cpu time spent up to now is        1.9 secs

     Self-consistent Calculation

     iteration #  1     ecut=    30.00 Ry     beta= 0.70
     CG style diagonalization
     ethr =  1.00E-02,  avg # of iterations =  3.6

     Threshold (ethr) on eigenvalues was too large:
     Diagonalizing with lowered threshold

     CG style diagonalization
     ethr =  7.29E-04,  avg # of iterations =  2.0

     total cpu time spent up to now is        4.6 secs

     total energy              =     -19.25664657 Ry
     estimated scf accuracy    <       0.05914552 Ry

     iteration #  2     ecut=    30.00 Ry     beta= 0.70
     CG style diagonalization
     ethr =  7.39E-04,  avg # of iterations =  3.0

     total cpu time spent up to now is        6.0 secs

     total energy              =     -19.25998298 Ry
     estimated scf accuracy    <       0.00172159 Ry

     iteration #  3     ecut=    30.00 Ry     beta= 0.70
     CG style diagonalization
     ethr =  2.15E-05,  avg # of iterations =  3.7

     total cpu time spent up to now is        7.6 secs

     total energy              =     -19.26019717 Ry
     estimated scf accuracy    <       0.00003761 Ry

     iteration #  4     ecut=    30.00 Ry     beta= 0.70
     CG style diagonalization
     ethr =  4.70E-07,  avg # of iterations =  4.3

     total cpu time spent up to now is        9.3 secs

     total energy              =     -19.26023026 Ry
     estimated scf accuracy    <       0.00000022 Ry

     iteration #  5     ecut=    30.00 Ry     beta= 0.70
     CG style diagonalization
     ethr =  2.78E-09,  avg # of iterations =  4.1

     total cpu time spent up to now is       11.0 secs

     End of self-consistent calculation

          k = 0.0000 0.0000 0.0000 (   725 PWs)   bands (ev):

    -5.9042   6.1567   6.1567   6.1567   8.6901   8.6901   8.6901   9.5001

          k =-0.1248 0.1248-0.1248 (   734 PWs)   bands (ev):

    -5.6976   4.5370   5.8629   5.8629   8.6159   9.1199   9.1200  10.8458

          k =-0.2495 0.2495-0.2495 (   751 PWs)   bands (ev):

    -5.0943   2.1837   5.3879   5.3879   8.1274   9.6358   9.6358  13.0246

          k =-0.3743 0.3743-0.3743 (   751 PWs)   bands (ev):

    -4.1860   0.1386   5.0597   5.0597   7.7580   9.5676   9.5676  13.8686

          k = 0.4990-0.4990 0.4990 (   754 PWs)   bands (ev):

    -3.5318  -0.9038   4.9477   4.9477   7.6288   9.4509   9.4509  13.6954

          k = 0.0000 0.2495 0.0000 (   737 PWs)   bands (ev):

    -5.6280   4.8168   5.3342   5.3342   8.1071   9.8448   9.8448  10.5266

          k =-0.1248 0.3743-0.1248 (   743 PWs)   bands (ev):

    -5.1535   2.9034   4.8168   4.8922   8.2397   9.8446  10.6108  10.8399

          k =-0.2495 0.4990-0.2495 (   736 PWs)   bands (ev):

    -4.3267   0.8166   4.2915   4.5481   8.3342   9.7632  10.5962  11.5628

          k = 0.6238-0.3743 0.6238 (   744 PWs)   bands (ev):

    -3.4466  -0.6722   3.8395   4.5757   8.2824   9.6184  10.2222  13.4681

          k = 0.4990-0.2495 0.4990 (   745 PWs)   bands (ev):

    -3.6975  -0.2938   3.6530   4.8781   8.4592   9.7201   9.9881  13.9869

          k = 0.3743-0.1248 0.3743 (   741 PWs)   bands (ev):

    -4.6376   1.4850   3.8012   5.3768   8.8316   9.8049   9.9615  12.3951

          k = 0.2495 0.0000 0.2495 (   753 PWs)   bands (ev):

    -5.3572   3.4503   4.4894   5.8638   9.1744   9.2541   9.4680  11.6675

          k = 0.0000 0.4990 0.0000 (   729 PWs)   bands (ev):

    -4.8092   2.6256   4.2377   4.2377   7.1897   9.1949  11.9062  11.9064

          k =-0.1248 0.6238-0.1248 (   739 PWs)   bands (ev):

    -4.0900   1.1883   3.4347   3.9168   7.4101   8.9567  12.1365  12.4146

          k = 0.7485-0.2495 0.7485 (   739 PWs)   bands (ev):

    -3.1479  -0.2765   2.5527   3.9217   7.5720  10.5334  11.8770  12.0575

          k = 0.6238-0.1248 0.6238 (   731 PWs)   bands (ev):

    -2.9371  -0.5420   2.0836   4.2458   7.9048  11.5660  11.6158  13.0788

          k = 0.4990 0.0000 0.4990 (   742 PWs)   bands (ev):

    -3.8325   0.6386   2.3230   4.8135   8.5332  10.9284  11.2332  12.2501

          k = 0.0000 0.7485 0.0000 (   741 PWs)   bands (ev):

    -3.4810   0.3819   3.5136   3.5136   6.6538   7.5739  14.1887  14.1888

          k = 0.8733-0.1248 0.8733 (   739 PWs)   bands (ev):

    -2.5715  -0.7123   2.6527   3.4372   6.9305   8.0258  14.4151  14.4907

          k = 0.7485 0.0000 0.7485 (   740 PWs)   bands (ev):

    -2.1187  -1.1175   1.7589   3.6988   7.2451  10.2150  13.6187  14.3593

          k = 0.0000-0.9980 0.0000 (   740 PWs)   bands (ev):

    -1.7108  -1.7108   3.2655   3.2655   6.7392   6.7392  16.2495  16.2495

          k =-0.2495 0.4990 0.0000 (   737 PWs)   bands (ev):

    -4.5580   1.8402   3.3859   4.7072   8.5393  10.0200  10.2806  11.6400

          k = 0.6238-0.3743 0.8733 (   738 PWs)   bands (ev):

    -3.6559   0.2666   2.7721   4.1936   8.9662   9.6544  11.1217  12.0706

          k = 0.4990-0.2495 0.7485 (   740 PWs)   bands (ev):

    -2.9882  -0.6988   2.6447   3.9587   9.1731   9.2054  12.0476  13.5175

          k = 0.7485-0.2495 0.9980 (   734 PWs)   bands (ev):

    -3.2780   0.1620   2.7271   3.3443   8.0194   8.7062  11.8837  14.1365

          k = 0.6238-0.1248 0.8733 (   736 PWs)   bands (ev):

    -2.3869  -0.8181   2.0087   3.1376   8.4581  10.3642  11.4014  13.5661

          k = 0.4990 0.0000 0.7485 (   732 PWs)   bands (ev):

    -2.7421  -0.4521   1.8368   3.5220   8.9472  10.6474  11.3216  13.1465

          k =-0.2495-0.9980-0.0000 (   742 PWs)   bands (ev):

    -1.6286  -1.6286   2.6721   2.6721   8.0318   8.0318  13.9800  13.9800

          k =-0.4990-0.9980 0.0000 (   744 PWs)   bands (ev):

    -1.5375  -1.5375   2.2183   2.2183  10.3442  10.3443  11.1307  11.1307

     highest occupied, lowest unoccupied level (ev):     6.1567    6.6538

!    total energy              =     -19.26023079 Ry
     estimated scf accuracy    <          8.0E-10 Ry

     The total energy is the sum of the following terms:
     one-electron contribution =       5.15065483 Ry
     hartree contribution      =       1.10296032 Ry
     xc contribution           =      -8.63805794 Ry
     ewald contribution        =     -16.87578800 Ry

     convergence has been achieved in   5 iterations

     Forces acting on atoms (cartesian axes, Ry/au):

     atom    1 type  1   force =     0.00000000    0.00000000    0.00000000
     atom    2 type  1   force =    -0.00000000   -0.00000000   -0.00000000

     Total force =     0.000000     Total SCF correction =     0.000000


     Computing stress (Cartesian axis) and pressure

          total   stress  (Ry/bohr**3)                   (kbar)     P=       -2.57
  -0.00001748  -0.00000000   0.00000000           -2.57       -0.00        0.00
   0.00000000  -0.00001748  -0.00000000            0.00       -2.57       -0.00
   0.00000000  -0.00000000  -0.00001748            0.00       -0.00       -2.57


     Writing all to output data dir ./Si_elastic.save/
 
     init_run     :      1.25s CPU      1.32s WALL (       1 calls)
     electrons    :      8.09s CPU      9.13s WALL (       1 calls)
     forces       :      0.24s CPU      0.26s WALL (       1 calls)
     stress       :      1.66s CPU      1.71s WALL (       1 calls)

     Called by init_run:
     wfcinit      :      0.26s CPU      0.27s WALL (       1 calls)
     potinit      :      0.02s CPU      0.03s WALL (       1 calls)
     hinit0       :      0.82s CPU      0.83s WALL (       1 calls)

     Called by electrons:
     c_bands      :      5.92s CPU      6.76s WALL (       6 calls)
     sum_band     :      1.51s CPU      1.61s WALL (       6 calls)
     v_of_rho     :      0.09s CPU      0.10s WALL (       6 calls)
     newd         :      0.65s CPU      0.73s WALL (       6 calls)
     mix_rho      :      0.02s CPU      0.02s WALL (       6 calls)

     Called by c_bands:
     init_us_2    :      0.32s CPU      0.36s WALL (     435 calls)
     init_us_2:cp :      0.31s CPU      0.35s WALL (     435 calls)
     ccgdiagg     :      4.89s CPU      5.41s WALL (     174 calls)
     wfcrot       :      1.04s CPU      1.10s WALL (     145 calls)

     Called by *cgdiagg:
     h_psi        :      4.55s CPU      4.96s WALL (    4020 calls)
     s_psi        :      0.47s CPU      0.55s WALL (    7895 calls)

     Called by h_psi:
     h_psi:calbec :      0.39s CPU      0.42s WALL (    4020 calls)
     vloc_psi     :      3.66s CPU      4.01s WALL (    4020 calls)
     add_vuspsi   :      0.29s CPU      0.32s WALL (    4020 calls)
     hs_1psi      :      4.07s CPU      4.47s WALL (    3875 calls)
     s_1psi       :      0.58s CPU      0.64s WALL (    3875 calls)

     General routines
     calbec       :      0.58s CPU      0.66s WALL (    8214 calls)
     fft          :      0.06s CPU      0.06s WALL (      43 calls)
     ffts         :      0.01s CPU      0.01s WALL (      12 calls)
     fftw         :      3.58s CPU      3.89s WALL (   11462 calls)
     interpolate  :      0.01s CPU      0.02s WALL (       6 calls)
 
     Parallel routines
 
     PWSCF        :     11.79s CPU     13.35s WALL

 
   This run was terminated on:  15:23:17   8Mar2022            

=------------------------------------------------------------------------------=
   JOB DONE.
=------------------------------------------------------------------------------=
