
     Program PWSCF v.7.0 starts on  8Mar2022 at 15:23:18 

     This program is part of the open-source Quantum ESPRESSO suite
     for quantum simulation of materials; please cite
         "P. Giannozzi et al., J. Phys.:Condens. Matter 21 395502 (2009);
         "P. Giannozzi et al., J. Phys.:Condens. Matter 29 465901 (2017);
         "P. Giannozzi et al., J. Chem. Phys. 152 154105 (2020);
          URL http://www.quantum-espresso.org", 
     in publications or presentations arising from this work. More details at
     http://www.quantum-espresso.org/quote

     Parallel version (MPI), running on     1 processors

     MPI processes distributed on     1 nodes
     88999 MiB available memory on the printing compute node when the environment starts
 
     Waiting for input...
     Reading input from standard input
Warning: card &CELL ignored
Warning: card  CELL_DYNAMICS = 'BFGS', ignored
Warning: card  PRESS=0.1D0, ignored
Warning: card / ignored

     Current dimensions of program PWSCF are:
     Max number of different atomic species (ntypx) = 10
     Max number of k-points (npk) =  40000
     Max angular momentum in pseudopotentials (lmaxx) =  4
     Message from routine setup:
     using ibrav=0 with symmetry is DISCOURAGED, use correct ibrav instead

     Subspace diagonalization in iterative solution of the eigenvalue problem:
     a serial algorithm will be used

 
     G-vector sticks info
     --------------------
     sticks:   dense  smooth     PW     G-vecs:    dense   smooth      PW
     Sum        1069     433    139                23505     5961    1067
 
     Using Slab Decomposition
 


     bravais-lattice index     =            0
     lattice parameter (alat)  =      10.1941  a.u.
     unit-cell volume          =     268.0327 (a.u.)^3
     number of atoms/cell      =            2
     number of atomic types    =            1
     number of electrons       =         8.00
     number of Kohn-Sham states=            8
     kinetic-energy cutoff     =      30.0000  Ry
     charge density cutoff     =     300.0000  Ry
     scf convergence threshold =      1.0E-08
     mixing beta               =       0.7000
     number of iterations used =            8  plain     mixing
     Exchange-correlation= SLA  PZ   NOGX NOGC
                           (   1   1   0   0   0   0   0)

     celldm(1)=  10.194100  celldm(2)=   0.000000  celldm(3)=   0.000000
     celldm(4)=   0.000000  celldm(5)=   0.000000  celldm(6)=   0.000000

     crystal axes: (cart. coord. in units of alat)
               a(1) = (  -0.502000   0.000000   0.502000 )  
               a(2) = (   0.000000   0.502000   0.502000 )  
               a(3) = (  -0.502000   0.502000   0.000000 )  

     reciprocal axes: (cart. coord. in units 2 pi/alat)
               b(1) = ( -0.996016 -0.996016  0.996016 )  
               b(2) = (  0.996016  0.996016  0.996016 )  
               b(3) = ( -0.996016  0.996016 -0.996016 )  


     PseudoPot. # 1 for Si read from file:
     ./Si_LDA.UPF
     MD5 check sum: b5ade7b37ee992b02096e360e546dc2d
     Pseudo is Ultrasoft + core correction, Zval =  4.0
     Generated by new atomic code, or converted to UPF format
     Using radial grid of  899 points,  6 beta functions with: 
                l(1) =   0
                l(2) =   0
                l(3) =   1
                l(4) =   1
                l(5) =   2
                l(6) =   2
     Q(r) pseudized with  8 coefficients,  rinner =    0.900   0.900   0.900
                                                       0.900   0.900

     atomic species   valence    mass     pseudopotential
        Si             4.00    28.08550     Si( 1.00)

     48 Sym. Ops., with inversion, found (24 have fractional translation)



   Cartesian axes

     site n.     atom                  positions (alat units)
         1           Si  tau(   1) = (   0.0000000   0.0000000   0.0000000  )
         2           Si  tau(   2) = (  -0.2510000   0.2510000   0.2510000  )

     number of k points=    29
                       cart. coord. in units 2pi/alat
        k(    1) = (   0.0000000   0.0000000   0.0000000), wk =   0.0039062
        k(    2) = (  -0.1245020   0.1245020  -0.1245020), wk =   0.0312500
        k(    3) = (  -0.2490040   0.2490040  -0.2490040), wk =   0.0312500
        k(    4) = (  -0.3735060   0.3735060  -0.3735060), wk =   0.0312500
        k(    5) = (   0.4980080  -0.4980080   0.4980080), wk =   0.0156250
        k(    6) = (   0.0000000   0.2490040   0.0000000), wk =   0.0234375
        k(    7) = (  -0.1245020   0.3735060  -0.1245020), wk =   0.0937500
        k(    8) = (  -0.2490040   0.4980080  -0.2490040), wk =   0.0937500
        k(    9) = (   0.6225100  -0.3735060   0.6225100), wk =   0.0937500
        k(   10) = (   0.4980080  -0.2490040   0.4980080), wk =   0.0937500
        k(   11) = (   0.3735060  -0.1245020   0.3735060), wk =   0.0937500
        k(   12) = (   0.2490040   0.0000000   0.2490040), wk =   0.0468750
        k(   13) = (   0.0000000   0.4980080   0.0000000), wk =   0.0234375
        k(   14) = (  -0.1245020   0.6225100  -0.1245020), wk =   0.0937500
        k(   15) = (   0.7470120  -0.2490040   0.7470120), wk =   0.0937500
        k(   16) = (   0.6225100  -0.1245020   0.6225100), wk =   0.0937500
        k(   17) = (   0.4980080   0.0000000   0.4980080), wk =   0.0468750
        k(   18) = (   0.0000000   0.7470120   0.0000000), wk =   0.0234375
        k(   19) = (   0.8715139  -0.1245020   0.8715139), wk =   0.0937500
        k(   20) = (   0.7470120   0.0000000   0.7470120), wk =   0.0468750
        k(   21) = (   0.0000000  -0.9960159   0.0000000), wk =   0.0117188
        k(   22) = (  -0.2490040   0.4980080   0.0000000), wk =   0.0937500
        k(   23) = (   0.6225100  -0.3735060   0.8715139), wk =   0.1875000
        k(   24) = (   0.4980080  -0.2490040   0.7470120), wk =   0.0937500
        k(   25) = (   0.7470120  -0.2490040   0.9960159), wk =   0.0937500
        k(   26) = (   0.6225100  -0.1245020   0.8715139), wk =   0.1875000
        k(   27) = (   0.4980080   0.0000000   0.7470120), wk =   0.0937500
        k(   28) = (  -0.2490040  -0.9960159   0.0000000), wk =   0.0468750
        k(   29) = (  -0.4980080  -0.9960159   0.0000000), wk =   0.0234375

     Dense  grid:    23505 G-vectors     FFT dimensions: (  40,  40,  40)

     Smooth grid:     5961 G-vectors     FFT dimensions: (  25,  25,  25)

     Estimated max dynamical RAM per process >      90.65 MB

     Initial potential from superposition of free atoms

     starting charge       7.9988, renormalised to       8.0000
     Starting wfcs are    8 randomized atomic wfcs

     total cpu time spent up to now is        1.9 secs

     Self-consistent Calculation

     iteration #  1     ecut=    30.00 Ry     beta= 0.70
     CG style diagonalization
     ethr =  1.00E-02,  avg # of iterations =  3.6

     Threshold (ethr) on eigenvalues was too large:
     Diagonalizing with lowered threshold

     CG style diagonalization
     ethr =  7.22E-04,  avg # of iterations =  2.0

     total cpu time spent up to now is        4.6 secs

     total energy              =     -19.25666579 Ry
     estimated scf accuracy    <       0.05858697 Ry

     iteration #  2     ecut=    30.00 Ry     beta= 0.70
     CG style diagonalization
     ethr =  7.32E-04,  avg # of iterations =  3.0

     total cpu time spent up to now is        5.9 secs

     total energy              =     -19.25993270 Ry
     estimated scf accuracy    <       0.00172358 Ry

     iteration #  3     ecut=    30.00 Ry     beta= 0.70
     CG style diagonalization
     ethr =  2.15E-05,  avg # of iterations =  3.7

     total cpu time spent up to now is        7.5 secs

     total energy              =     -19.26013751 Ry
     estimated scf accuracy    <       0.00003742 Ry

     iteration #  4     ecut=    30.00 Ry     beta= 0.70
     CG style diagonalization
     ethr =  4.68E-07,  avg # of iterations =  4.3

     total cpu time spent up to now is        9.3 secs

     total energy              =     -19.26017258 Ry
     estimated scf accuracy    <       0.00000015 Ry

     iteration #  5     ecut=    30.00 Ry     beta= 0.70
     CG style diagonalization
     ethr =  1.85E-09,  avg # of iterations =  4.1

     total cpu time spent up to now is       11.0 secs

     End of self-consistent calculation

          k = 0.0000 0.0000 0.0000 (   725 PWs)   bands (ev):

    -5.9258   6.0938   6.0938   6.0938   8.6247   8.6247   8.6247   9.3684

          k =-0.1245 0.1245-0.1245 (   743 PWs)   bands (ev):

    -5.7203   4.4760   5.8018   5.8018   8.5356   9.0520   9.0520  10.7294

          k =-0.2490 0.2490-0.2490 (   751 PWs)   bands (ev):

    -5.1202   2.1319   5.3289   5.3289   8.0435   9.5679   9.5679  12.9127

          k =-0.3735 0.3735-0.3735 (   751 PWs)   bands (ev):

    -4.2175   0.0969   5.0017   5.0017   7.6736   9.5050   9.5050  13.7924

          k = 0.4980-0.4980 0.4980 (   754 PWs)   bands (ev):

    -3.5687  -0.9384   4.8901   4.8901   7.5443   9.3905   9.3905  13.6238

          k = 0.0000 0.2490 0.0000 (   745 PWs)   bands (ev):

    -5.6510   4.7481   5.2768   5.2768   8.0445   9.7723   9.7723  10.4122

          k =-0.1245 0.3735-0.1245 (   745 PWs)   bands (ev):

    -5.1790   2.8452   4.7620   4.8336   8.1753   9.7571  10.5359  10.7738

          k =-0.2490 0.4980-0.2490 (   746 PWs)   bands (ev):

    -4.3570   0.7694   4.2351   4.4941   8.2656   9.6855  10.5265  11.4909

          k = 0.6225-0.3735 0.6225 (   744 PWs)   bands (ev):

    -3.4834  -0.7099   3.7854   4.5210   8.2106   9.5469  10.1570  13.3856

          k = 0.4980-0.2490 0.4980 (   750 PWs)   bands (ev):

    -3.7322  -0.3342   3.6008   4.8212   8.3821   9.6519   9.9237  13.8981

          k = 0.3735-0.1245 0.3735 (   748 PWs)   bands (ev):

    -4.6661   1.4341   3.7502   5.3172   8.7499   9.7371   9.8923  12.3064

          k = 0.2490 0.0000 0.2490 (   753 PWs)   bands (ev):

    -5.3817   3.3896   4.4373   5.8016   9.0896   9.1863   9.3964  11.5698

          k = 0.0000 0.4980 0.0000 (   729 PWs)   bands (ev):

    -4.8365   2.5615   4.1861   4.1861   7.1321   9.1329  11.8237  11.8238

          k =-0.1245 0.6225-0.1245 (   741 PWs)   bands (ev):

    -4.1212   1.1319   3.3871   3.8666   7.3523   8.8960  12.0472  12.3338

          k = 0.7470-0.2490 0.7470 (   739 PWs)   bands (ev):

    -3.1852  -0.3231   2.5092   3.8710   7.5148  10.4658  11.7843  11.9823

          k = 0.6225-0.1245 0.6225 (   741 PWs)   bands (ev):

    -2.9765  -0.5861   2.0433   4.1931   7.8447  11.4850  11.5419  12.9925

          k = 0.4980 0.0000 0.4980 (   754 PWs)   bands (ev):

    -3.8656   0.5866   2.2830   4.7574   8.4665  10.8532  11.1560  12.1553

          k = 0.0000 0.7470 0.0000 (   753 PWs)   bands (ev):

    -3.5152   0.3276   3.4654   3.4654   6.6002   7.5210  14.0959  14.0959

          k = 0.8715-0.1245 0.8715 (   745 PWs)   bands (ev):

    -2.6108  -0.7614   2.6112   3.3892   6.8773   7.9673  14.3256  14.3914

          k = 0.7470 0.0000 0.7470 (   740 PWs)   bands (ev):

    -2.1626  -1.1632   1.7242   3.6493   7.1902  10.1471  13.5298  14.2515

          k = 0.0000-0.9960 0.0000 (   740 PWs)   bands (ev):

    -1.7543  -1.7543   3.2184   3.2184   6.6876   6.6876  16.1353  16.1354

          k =-0.2490 0.4980 0.0000 (   745 PWs)   bands (ev):

    -4.5868   1.7827   3.3397   4.6516   8.4745   9.9368  10.2180  11.5593

          k = 0.6225-0.3735 0.8715 (   746 PWs)   bands (ev):

    -3.6901   0.2185   2.7267   4.1421   8.8996   9.5840  11.0461  11.9906

          k = 0.4980-0.2490 0.7470 (   740 PWs)   bands (ev):

    -3.0277  -0.7395   2.5985   3.9091   9.0972   9.1462  11.9664  13.4285

          k = 0.7470-0.2490 0.9960 (   734 PWs)   bands (ev):

    -3.3137   0.1087   2.6846   3.2988   7.9583   8.6465  11.8004  14.0444

          k = 0.6225-0.1245 0.8715 (   738 PWs)   bands (ev):

    -2.4288  -0.8657   1.9714   3.0935   8.3966  10.2977  11.3193  13.4777

          k = 0.4980 0.0000 0.7470 (   740 PWs)   bands (ev):

    -2.7820  -0.5013   1.8007   3.4752   8.8830  10.5757  11.2439  13.0643

          k =-0.2490-0.9960 0.0000 (   742 PWs)   bands (ev):

    -1.6733  -1.6733   2.6306   2.6306   7.9727   7.9727  13.8894  13.8894

          k =-0.4980-0.9960 0.0000 (   744 PWs)   bands (ev):

    -1.5838  -1.5838   2.1809   2.1809  10.2813  10.2813  11.0465  11.0465

     highest occupied, lowest unoccupied level (ev):     6.0938    6.6002

!    total energy              =     -19.26017309 Ry
     estimated scf accuracy    <          1.4E-09 Ry

     The total energy is the sum of the following terms:
     one-electron contribution =       5.10455056 Ry
     hartree contribution      =       1.10809636 Ry
     xc contribution           =      -8.63064911 Ry
     ewald contribution        =     -16.84217089 Ry

     convergence has been achieved in   5 iterations

     Forces acting on atoms (cartesian axes, Ry/au):

     atom    1 type  1   force =    -0.00000000   -0.00000000    0.00000000
     atom    2 type  1   force =     0.00000000    0.00000000   -0.00000000

     Total force =     0.000000     Total SCF correction =     0.000000


     Computing stress (Cartesian axis) and pressure

          total   stress  (Ry/bohr**3)                   (kbar)     P=       -8.21
  -0.00005581   0.00000000  -0.00000000           -8.21        0.00       -0.00
   0.00000000  -0.00005581   0.00000000            0.00       -8.21        0.00
  -0.00000000   0.00000000  -0.00005581           -0.00        0.00       -8.21


     Writing all to output data dir ./Si_elastic.save/
 
     init_run     :      1.24s CPU      1.30s WALL (       1 calls)
     electrons    :      8.11s CPU      9.09s WALL (       1 calls)
     forces       :      0.23s CPU      0.26s WALL (       1 calls)
     stress       :      1.67s CPU      1.71s WALL (       1 calls)

     Called by init_run:
     wfcinit      :      0.25s CPU      0.27s WALL (       1 calls)
     potinit      :      0.02s CPU      0.03s WALL (       1 calls)
     hinit0       :      0.80s CPU      0.81s WALL (       1 calls)

     Called by electrons:
     c_bands      :      5.93s CPU      6.71s WALL (       6 calls)
     sum_band     :      1.52s CPU      1.62s WALL (       6 calls)
     v_of_rho     :      0.09s CPU      0.10s WALL (       6 calls)
     newd         :      0.66s CPU      0.74s WALL (       6 calls)
     mix_rho      :      0.02s CPU      0.02s WALL (       6 calls)

     Called by c_bands:
     init_us_2    :      0.31s CPU      0.36s WALL (     435 calls)
     init_us_2:cp :      0.31s CPU      0.35s WALL (     435 calls)
     ccgdiagg     :      4.90s CPU      5.34s WALL (     174 calls)
     wfcrot       :      1.02s CPU      1.09s WALL (     145 calls)

     Called by *cgdiagg:
     h_psi        :      4.63s CPU      4.99s WALL (    4030 calls)
     s_psi        :      0.42s CPU      0.47s WALL (    7915 calls)

     Called by h_psi:
     h_psi:calbec :      0.39s CPU      0.41s WALL (    4030 calls)
     vloc_psi     :      3.77s CPU      4.07s WALL (    4030 calls)
     add_vuspsi   :      0.27s CPU      0.29s WALL (    4030 calls)
     hs_1psi      :      4.12s CPU      4.47s WALL (    3885 calls)
     s_1psi       :      0.52s CPU      0.57s WALL (    3885 calls)

     General routines
     calbec       :      0.57s CPU      0.63s WALL (    8234 calls)
     fft          :      0.05s CPU      0.06s WALL (      43 calls)
     ffts         :      0.01s CPU      0.01s WALL (      12 calls)
     fftw         :      3.66s CPU      3.94s WALL (   11482 calls)
     interpolate  :      0.02s CPU      0.02s WALL (       6 calls)
 
     Parallel routines
 
     PWSCF        :     11.81s CPU     13.29s WALL

 
   This run was terminated on:  15:23:31   8Mar2022            

=------------------------------------------------------------------------------=
   JOB DONE.
=------------------------------------------------------------------------------=
