
     Program PWSCF v.7.0 starts on  5Mar2022 at 12:12: 7 

     This program is part of the open-source Quantum ESPRESSO suite
     for quantum simulation of materials; please cite
         "P. Giannozzi et al., J. Phys.:Condens. Matter 21 395502 (2009);
         "P. Giannozzi et al., J. Phys.:Condens. Matter 29 465901 (2017);
         "P. Giannozzi et al., J. Chem. Phys. 152 154105 (2020);
          URL http://www.quantum-espresso.org", 
     in publications or presentations arising from this work. More details at
     http://www.quantum-espresso.org/quote

     Parallel version (MPI), running on     1 processors

     MPI processes distributed on     1 nodes
     88509 MiB available memory on the printing compute node when the environment starts
 
     Waiting for input...
     Reading input from standard input
Warning: card &CELL ignored
Warning: card  CELL_DYNAMICS = 'BFGS', ignored
Warning: card  PRESS=0.1D0, ignored
Warning: card / ignored

     Current dimensions of program PWSCF are:
     Max number of different atomic species (ntypx) = 10
     Max number of k-points (npk) =  40000
     Max angular momentum in pseudopotentials (lmaxx) =  4

     Subspace diagonalization in iterative solution of the eigenvalue problem:
     a serial algorithm will be used

 
     G-vector sticks info
     --------------------
     sticks:   dense  smooth     PW     G-vecs:    dense   smooth      PW
     Sum         859     859    253                16625    16625    2733
 
     Using Slab Decomposition
 


     bravais-lattice index     =            2
     lattice parameter (alat)  =      10.2000  a.u.
     unit-cell volume          =     265.3020 (a.u.)^3
     number of atoms/cell      =            2
     number of atomic types    =            1
     number of electrons       =         8.00
     number of Kohn-Sham states=            4
     kinetic-energy cutoff     =      60.0000  Ry
     charge density cutoff     =     240.0000  Ry
     scf convergence threshold =      1.0E-08
     mixing beta               =       0.7000
     number of iterations used =            8  plain     mixing
     Exchange-correlation= SLA  PZ   NOGX NOGC
                           (   1   1   0   0   0   0   0)

     celldm(1)=  10.200000  celldm(2)=   0.000000  celldm(3)=   0.000000
     celldm(4)=   0.000000  celldm(5)=   0.000000  celldm(6)=   0.000000

     crystal axes: (cart. coord. in units of alat)
               a(1) = (  -0.500000   0.000000   0.500000 )  
               a(2) = (   0.000000   0.500000   0.500000 )  
               a(3) = (  -0.500000   0.500000   0.000000 )  

     reciprocal axes: (cart. coord. in units 2 pi/alat)
               b(1) = ( -1.000000 -1.000000  1.000000 )  
               b(2) = (  1.000000  1.000000  1.000000 )  
               b(3) = ( -1.000000  1.000000 -1.000000 )  


     PseudoPot. # 1 for Si read from file:
     ./Si_LDA.UPF
     MD5 check sum: b5ade7b37ee992b02096e360e546dc2d
     Pseudo is Ultrasoft + core correction, Zval =  4.0
     Generated by new atomic code, or converted to UPF format
     Using radial grid of  899 points,  6 beta functions with: 
                l(1) =   0
                l(2) =   0
                l(3) =   1
                l(4) =   1
                l(5) =   2
                l(6) =   2
     Q(r) pseudized with  8 coefficients,  rinner =    0.900   0.900   0.900
                                                       0.900   0.900

     atomic species   valence    mass     pseudopotential
        Si             4.00    28.08550     Si( 1.00)

     48 Sym. Ops., with inversion, found (24 have fractional translation)



   Cartesian axes

     site n.     atom                  positions (alat units)
         1           Si  tau(   1) = (   0.0000000   0.0000000   0.0000000  )
         2           Si  tau(   2) = (  -0.2500000   0.2500000   0.2500000  )

     number of k points=    10
                       cart. coord. in units 2pi/alat
        k(    1) = (   0.0000000   0.0000000   0.0000000), wk =   0.0160000
        k(    2) = (  -0.2000000   0.2000000  -0.2000000), wk =   0.1280000
        k(    3) = (  -0.4000000   0.4000000  -0.4000000), wk =   0.1280000
        k(    4) = (   0.0000000   0.4000000   0.0000000), wk =   0.0960000
        k(    5) = (  -0.2000000   0.6000000  -0.2000000), wk =   0.3840000
        k(    6) = (   0.6000000  -0.2000000   0.6000000), wk =   0.3840000
        k(    7) = (   0.4000000   0.0000000   0.4000000), wk =   0.1920000
        k(    8) = (   0.0000000   0.8000000   0.0000000), wk =   0.0960000
        k(    9) = (   0.8000000   0.0000000   0.8000000), wk =   0.1920000
        k(   10) = (   0.6000000  -0.2000000   1.0000000), wk =   0.3840000

     Dense  grid:    16625 G-vectors     FFT dimensions: (  36,  36,  36)

     Estimated max dynamical RAM per process >      64.89 MB

     Initial potential from superposition of free atoms

     starting charge       7.9988, renormalised to       8.0000
     Starting wfcs are    8 randomized atomic wfcs

     total cpu time spent up to now is        1.9 secs

     Self-consistent Calculation

     iteration #  1     ecut=    60.00 Ry     beta= 0.70
     CG style diagonalization
     ethr =  1.00E-02,  avg # of iterations =  3.0

     Threshold (ethr) on eigenvalues was too large:
     Diagonalizing with lowered threshold

     CG style diagonalization
     ethr =  7.65E-04,  avg # of iterations =  2.0

     total cpu time spent up to now is        3.2 secs

     total energy              =     -19.25194442 Ry
     estimated scf accuracy    <       0.06185381 Ry

     iteration #  2     ecut=    60.00 Ry     beta= 0.70
     CG style diagonalization
     ethr =  7.73E-04,  avg # of iterations =  3.0

     total cpu time spent up to now is        4.0 secs

     total energy              =     -19.25499394 Ry
     estimated scf accuracy    <       0.00206580 Ry

     iteration #  3     ecut=    60.00 Ry     beta= 0.70
     CG style diagonalization
     ethr =  2.58E-05,  avg # of iterations =  4.0

     total cpu time spent up to now is        4.9 secs

     total energy              =     -19.25550482 Ry
     estimated scf accuracy    <       0.00006428 Ry

     iteration #  4     ecut=    60.00 Ry     beta= 0.70
     CG style diagonalization
     ethr =  8.03E-07,  avg # of iterations =  4.4

     total cpu time spent up to now is        5.8 secs

     total energy              =     -19.25554316 Ry
     estimated scf accuracy    <       0.00001190 Ry

     iteration #  5     ecut=    60.00 Ry     beta= 0.70
     CG style diagonalization
     ethr =  1.49E-07,  avg # of iterations =  4.0

     total cpu time spent up to now is        6.8 secs

     total energy              =     -19.25554592 Ry
     estimated scf accuracy    <       0.00000009 Ry

     iteration #  6     ecut=    60.00 Ry     beta= 0.70
     CG style diagonalization
     ethr =  1.18E-09,  avg # of iterations =  5.1

     total cpu time spent up to now is        7.8 secs

     End of self-consistent calculation

          k = 0.0000 0.0000 0.0000 (  2085 PWs)   bands (ev):

    -5.8762   6.2190   6.2190   6.2190

          k =-0.2000 0.2000-0.2000 (  2079 PWs)   bands (ev):

    -5.3502   3.1660   5.6281   5.6281

          k =-0.4000 0.4000-0.4000 (  2078 PWs)   bands (ev):

    -3.9584  -0.1508   5.0763   5.0763

          k = 0.0000 0.4000 0.0000 (  2073 PWs)   bands (ev):

    -5.1695   3.5877   4.6963   4.6963

          k =-0.2000 0.6000-0.2000 (  2072 PWs)   bands (ev):

    -4.0075   0.8555   3.5326   4.1826

          k = 0.6000-0.2000 0.6000 (  2092 PWs)   bands (ev):

    -3.0980  -0.5734   2.7051   4.4741

          k = 0.4000 0.0000 0.4000 (  2085 PWs)   bands (ev):

    -4.5040   1.7033   3.1328   5.3620

          k = 0.0000 0.8000 0.0000 (  2084 PWs)   bands (ev):

    -3.1200  -0.0020   3.4717   3.4717

          k = 0.8000 0.0000 0.8000 (  2097 PWs)   bands (ev):

    -1.8848  -1.2840   2.0391   3.5936

          k = 0.6000-0.2000 1.0000 (  2077 PWs)   bands (ev):

    -2.6666  -0.3891   2.1284   3.1430

     highest occupied level (ev):     6.2190

!    total energy              =     -19.25554605 Ry
     estimated scf accuracy    <          3.3E-09 Ry

     The total energy is the sum of the following terms:
     one-electron contribution =       5.18266192 Ry
     hartree contribution      =       1.10870113 Ry
     xc contribution           =      -8.64715052 Ry
     ewald contribution        =     -16.89975857 Ry

     convergence has been achieved in   6 iterations

     Forces acting on atoms (cartesian axes, Ry/au):

     atom    1 type  1   force =    -0.00000000   -0.00000000    0.00000000
     atom    2 type  1   force =     0.00000000    0.00000000    0.00000000

     Total force =     0.000000     Total SCF correction =     0.000000


     Computing stress (Cartesian axis) and pressure

          total   stress  (Ry/bohr**3)                   (kbar)     P=        3.68
   0.00002503   0.00000000   0.00000000            3.68        0.00        0.00
  -0.00000000   0.00002503  -0.00000000           -0.00        3.68       -0.00
   0.00000000   0.00000000   0.00002503            0.00        0.00        3.68


     Writing all to output data dir ./Si.save/
 
     init_run     :      1.21s CPU      1.27s WALL (       1 calls)
     electrons    :      5.41s CPU      5.96s WALL (       1 calls)
     forces       :      0.17s CPU      0.19s WALL (       1 calls)
     stress       :      1.25s CPU      1.27s WALL (       1 calls)

     Called by init_run:
     wfcinit      :      0.26s CPU      0.28s WALL (       1 calls)
     potinit      :      0.01s CPU      0.02s WALL (       1 calls)
     hinit0       :      0.83s CPU      0.84s WALL (       1 calls)

     Called by electrons:
     c_bands      :      3.65s CPU      4.02s WALL (       7 calls)
     sum_band     :      1.21s CPU      1.29s WALL (       7 calls)
     v_of_rho     :      0.08s CPU      0.08s WALL (       7 calls)
     newd         :      0.54s CPU      0.60s WALL (       7 calls)
     mix_rho      :      0.02s CPU      0.03s WALL (       7 calls)

     Called by c_bands:
     init_us_2    :      0.36s CPU      0.38s WALL (     170 calls)
     init_us_2:cp :      0.35s CPU      0.37s WALL (     170 calls)
     ccgdiagg     :      2.90s CPU      3.13s WALL (      70 calls)
     wfcrot       :      0.77s CPU      0.81s WALL (      60 calls)

     Called by *cgdiagg:
     h_psi        :      2.89s CPU      3.05s WALL (     880 calls)
     s_psi        :      0.35s CPU      0.42s WALL (    1700 calls)

     Called by h_psi:
     h_psi:calbec :      0.22s CPU      0.24s WALL (     880 calls)
     vloc_psi     :      2.41s CPU      2.52s WALL (     880 calls)
     add_vuspsi   :      0.20s CPU      0.23s WALL (     880 calls)
     hs_1psi      :      2.42s CPU      2.58s WALL (     820 calls)
     s_1psi       :      0.37s CPU      0.42s WALL (     820 calls)

     General routines
     calbec       :      0.39s CPU      0.45s WALL (    1820 calls)
     fft          :      0.04s CPU      0.04s WALL (      37 calls)
     ffts         :      0.01s CPU      0.01s WALL (       7 calls)
     fftw         :      2.29s CPU      2.39s WALL (    2480 calls)
 
     Parallel routines
 
     PWSCF        :      8.55s CPU      9.49s WALL

 
   This run was terminated on:  12:12:16   5Mar2022            

=------------------------------------------------------------------------------=
   JOB DONE.
=------------------------------------------------------------------------------=
