
     Program PWSCF v.7.0 starts on 14Mar2022 at 16:51:45 

     This program is part of the open-source Quantum ESPRESSO suite
     for quantum simulation of materials; please cite
         "P. Giannozzi et al., J. Phys.:Condens. Matter 21 395502 (2009);
         "P. Giannozzi et al., J. Phys.:Condens. Matter 29 465901 (2017);
         "P. Giannozzi et al., J. Chem. Phys. 152 154105 (2020);
          URL http://www.quantum-espresso.org", 
     in publications or presentations arising from this work. More details at
     http://www.quantum-espresso.org/quote

     Parallel version (MPI), running on     1 processors

     MPI processes distributed on     1 nodes
     89128 MiB available memory on the printing compute node when the environment starts
 
     Waiting for input...
     Reading input from standard input
Warning: card &CELL ignored
Warning: card  CELL_DYNAMICS = 'BFGS', ignored
Warning: card  PRESS=0.1D0, ignored
Warning: card / ignored

     Current dimensions of program PWSCF are:
     Max number of different atomic species (ntypx) = 10
     Max number of k-points (npk) =  40000
     Max angular momentum in pseudopotentials (lmaxx) =  4
     Message from routine setup:
     using ibrav=0 with symmetry is DISCOURAGED, use correct ibrav instead

     Subspace diagonalization in iterative solution of the eigenvalue problem:
     a serial algorithm will be used

 
     G-vector sticks info
     --------------------
     sticks:   dense  smooth     PW     G-vecs:    dense   smooth      PW
     Sum        1069     433    151                23505     5961    1139
 
     Using Slab Decomposition
 


     bravais-lattice index     =            0
     lattice parameter (alat)  =      10.2050  a.u.
     unit-cell volume          =     268.8934 (a.u.)^3
     number of atoms/cell      =            2
     number of atomic types    =            1
     number of electrons       =         8.00
     number of Kohn-Sham states=            4
     kinetic-energy cutoff     =      30.0000  Ry
     charge density cutoff     =     300.0000  Ry
     scf convergence threshold =      1.0E-08
     mixing beta               =       0.7000
     number of iterations used =            8  plain     mixing
     energy convergence thresh.=      1.0E-04
     force convergence thresh. =      1.0E-03
     Exchange-correlation= SLA  PZ   NOGX NOGC
                           (   1   1   0   0   0   0   0)
     nstep                     =           50


     celldm(1)=  10.205000  celldm(2)=   0.000000  celldm(3)=   0.000000
     celldm(4)=   0.000000  celldm(5)=   0.000000  celldm(6)=   0.000000

     crystal axes: (cart. coord. in units of alat)
               a(1) = (  -0.502000   0.000000   0.502000 )  
               a(2) = (   0.000000   0.502000   0.502000 )  
               a(3) = (  -0.502000   0.502000   0.000000 )  

     reciprocal axes: (cart. coord. in units 2 pi/alat)
               b(1) = ( -0.996016 -0.996016  0.996016 )  
               b(2) = (  0.996016  0.996016  0.996016 )  
               b(3) = ( -0.996016  0.996016 -0.996016 )  


     PseudoPot. # 1 for Si read from file:
     ./Si_LDA.UPF
     MD5 check sum: b5ade7b37ee992b02096e360e546dc2d
     Pseudo is Ultrasoft + core correction, Zval =  4.0
     Generated by new atomic code, or converted to UPF format
     Using radial grid of  899 points,  6 beta functions with: 
                l(1) =   0
                l(2) =   0
                l(3) =   1
                l(4) =   1
                l(5) =   2
                l(6) =   2
     Q(r) pseudized with  8 coefficients,  rinner =    0.900   0.900   0.900
                                                       0.900   0.900

     atomic species   valence    mass     pseudopotential
        Si             4.00    28.08550     Si( 1.00)

     48 Sym. Ops., with inversion, found (24 have fractional translation)



   Cartesian axes

     site n.     atom                  positions (alat units)
         1           Si  tau(   1) = (   0.0000000   0.0000000   0.0000000  )
         2           Si  tau(   2) = (  -0.2510000   0.2510000   0.2510000  )

     number of k points=    29
                       cart. coord. in units 2pi/alat
        k(    1) = (   0.0000000   0.0000000   0.0000000), wk =   0.0039062
        k(    2) = (  -0.1245020   0.1245020  -0.1245020), wk =   0.0312500
        k(    3) = (  -0.2490040   0.2490040  -0.2490040), wk =   0.0312500
        k(    4) = (  -0.3735060   0.3735060  -0.3735060), wk =   0.0312500
        k(    5) = (   0.4980080  -0.4980080   0.4980080), wk =   0.0156250
        k(    6) = (   0.0000000   0.2490040   0.0000000), wk =   0.0234375
        k(    7) = (  -0.1245020   0.3735060  -0.1245020), wk =   0.0937500
        k(    8) = (  -0.2490040   0.4980080  -0.2490040), wk =   0.0937500
        k(    9) = (   0.6225100  -0.3735060   0.6225100), wk =   0.0937500
        k(   10) = (   0.4980080  -0.2490040   0.4980080), wk =   0.0937500
        k(   11) = (   0.3735060  -0.1245020   0.3735060), wk =   0.0937500
        k(   12) = (   0.2490040   0.0000000   0.2490040), wk =   0.0468750
        k(   13) = (   0.0000000   0.4980080   0.0000000), wk =   0.0234375
        k(   14) = (  -0.1245020   0.6225100  -0.1245020), wk =   0.0937500
        k(   15) = (   0.7470120  -0.2490040   0.7470120), wk =   0.0937500
        k(   16) = (   0.6225100  -0.1245020   0.6225100), wk =   0.0937500
        k(   17) = (   0.4980080   0.0000000   0.4980080), wk =   0.0468750
        k(   18) = (   0.0000000   0.7470120   0.0000000), wk =   0.0234375
        k(   19) = (   0.8715139  -0.1245020   0.8715139), wk =   0.0937500
        k(   20) = (   0.7470120   0.0000000   0.7470120), wk =   0.0468750
        k(   21) = (   0.0000000  -0.9960159   0.0000000), wk =   0.0117188
        k(   22) = (  -0.2490040   0.4980080   0.0000000), wk =   0.0937500
        k(   23) = (   0.6225100  -0.3735060   0.8715139), wk =   0.1875000
        k(   24) = (   0.4980080  -0.2490040   0.7470120), wk =   0.0937500
        k(   25) = (   0.7470120  -0.2490040   0.9960159), wk =   0.0937500
        k(   26) = (   0.6225100  -0.1245020   0.8715139), wk =   0.1875000
        k(   27) = (   0.4980080   0.0000000   0.7470120), wk =   0.0937500
        k(   28) = (  -0.2490040  -0.9960159   0.0000000), wk =   0.0468750
        k(   29) = (  -0.4980080  -0.9960159   0.0000000), wk =   0.0234375

     Dense  grid:    23505 G-vectors     FFT dimensions: (  40,  40,  40)

     Smooth grid:     5961 G-vectors     FFT dimensions: (  25,  25,  25)

     Estimated max dynamical RAM per process >      89.29 MB

     Initial potential from superposition of free atoms

     starting charge       7.9988, renormalised to       8.0000
     Starting wfcs are    8 randomized atomic wfcs

     total cpu time spent up to now is        1.9 secs

     Self-consistent Calculation

     iteration #  1     ecut=    30.00 Ry     beta= 0.70
     CG style diagonalization
     ethr =  1.00E-02,  avg # of iterations =  2.9

     Threshold (ethr) on eigenvalues was too large:
     Diagonalizing with lowered threshold

     CG style diagonalization
     ethr =  7.18E-04,  avg # of iterations =  2.0

     total cpu time spent up to now is        3.5 secs

     total energy              =     -19.25665213 Ry
     estimated scf accuracy    <       0.05822094 Ry

     iteration #  2     ecut=    30.00 Ry     beta= 0.70
     CG style diagonalization
     ethr =  7.28E-04,  avg # of iterations =  3.0

     total cpu time spent up to now is        4.4 secs

     total energy              =     -19.25951270 Ry
     estimated scf accuracy    <       0.00197291 Ry

     iteration #  3     ecut=    30.00 Ry     beta= 0.70
     CG style diagonalization
     ethr =  2.47E-05,  avg # of iterations =  4.1

     total cpu time spent up to now is        5.5 secs

     total energy              =     -19.26008050 Ry
     estimated scf accuracy    <       0.00006675 Ry

     iteration #  4     ecut=    30.00 Ry     beta= 0.70
     CG style diagonalization
     ethr =  8.34E-07,  avg # of iterations =  4.3

     total cpu time spent up to now is        6.6 secs

     total energy              =     -19.26011422 Ry
     estimated scf accuracy    <       0.00001350 Ry

     iteration #  5     ecut=    30.00 Ry     beta= 0.70
     CG style diagonalization
     ethr =  1.69E-07,  avg # of iterations =  3.9

     total cpu time spent up to now is        7.6 secs

     total energy              =     -19.26011693 Ry
     estimated scf accuracy    <       0.00000007 Ry

     iteration #  6     ecut=    30.00 Ry     beta= 0.70
     CG style diagonalization
     ethr =  8.31E-10,  avg # of iterations =  5.5

     total cpu time spent up to now is        9.0 secs

     End of self-consistent calculation

          k = 0.0000 0.0000 0.0000 (   725 PWs)   bands (ev):

    -5.9373   6.0603   6.0603   6.0603

          k =-0.1245 0.1245-0.1245 (   743 PWs)   bands (ev):

    -5.7323   4.4436   5.7692   5.7692

          k =-0.2490 0.2490-0.2490 (   754 PWs)   bands (ev):

    -5.1339   2.1043   5.2975   5.2975

          k =-0.3735 0.3735-0.3735 (   757 PWs)   bands (ev):

    -4.2342   0.0747   4.9709   4.9709

          k = 0.4980-0.4980 0.4980 (   754 PWs)   bands (ev):

    -3.5883  -0.9568   4.8594   4.8594

          k = 0.0000 0.2490 0.0000 (   745 PWs)   bands (ev):

    -5.6633   4.7115   5.2463   5.2463

          k =-0.1245 0.3735-0.1245 (   753 PWs)   bands (ev):

    -5.1926   2.8142   4.7328   4.8024

          k =-0.2490 0.4980-0.2490 (   746 PWs)   bands (ev):

    -4.3730   0.7443   4.2051   4.4653

          k = 0.6225-0.3735 0.6225 (   751 PWs)   bands (ev):

    -3.5030  -0.7299   3.7567   4.4918

          k = 0.4980-0.2490 0.4980 (   750 PWs)   bands (ev):

    -3.7506  -0.3557   3.5731   4.7910

          k = 0.3735-0.1245 0.3735 (   748 PWs)   bands (ev):

    -4.6812   1.4070   3.7230   5.2854

          k = 0.2490 0.0000 0.2490 (   753 PWs)   bands (ev):

    -5.3946   3.3572   4.4095   5.7685

          k = 0.0000 0.4980 0.0000 (   729 PWs)   bands (ev):

    -4.8510   2.5274   4.1586   4.1586

          k =-0.1245 0.6225-0.1245 (   751 PWs)   bands (ev):

    -4.1377   1.1019   3.3617   3.8398

          k = 0.7470-0.2490 0.7470 (   748 PWs)   bands (ev):

    -3.2050  -0.3480   2.4862   3.8441

          k = 0.6225-0.1245 0.6225 (   741 PWs)   bands (ev):

    -2.9974  -0.6096   2.0219   4.1651

          k = 0.4980 0.0000 0.4980 (   754 PWs)   bands (ev):

    -3.8832   0.5589   2.2618   4.7276

          k = 0.0000 0.7470 0.0000 (   753 PWs)   bands (ev):

    -3.5334   0.2987   3.4397   3.4397

          k = 0.8715-0.1245 0.8715 (   745 PWs)   bands (ev):

    -2.6318  -0.7875   2.5892   3.3637

          k = 0.7470 0.0000 0.7470 (   740 PWs)   bands (ev):

    -2.1860  -1.1876   1.7057   3.6230

          k = 0.0000-0.9960 0.0000 (   740 PWs)   bands (ev):

    -1.7775  -1.7775   3.1934   3.1934

          k =-0.2490 0.4980 0.0000 (   745 PWs)   bands (ev):

    -4.6020   1.7520   3.3151   4.6221

          k = 0.6225-0.3735 0.8715 (   746 PWs)   bands (ev):

    -3.7082   0.1928   2.7026   4.1147

          k = 0.4980-0.2490 0.7470 (   740 PWs)   bands (ev):

    -3.0487  -0.7612   2.5739   3.8827

          k = 0.7470-0.2490 0.9960 (   755 PWs)   bands (ev):

    -3.3327   0.0803   2.6620   3.2747

          k = 0.6225-0.1245 0.8715 (   744 PWs)   bands (ev):

    -2.4511  -0.8911   1.9515   3.0700

          k = 0.4980 0.0000 0.7470 (   740 PWs)   bands (ev):

    -2.8032  -0.5274   1.7816   3.4503

          k =-0.2490-0.9960 0.0000 (   742 PWs)   bands (ev):

    -1.6972  -1.6972   2.6085   2.6085

          k =-0.4980-0.9960 0.0000 (   744 PWs)   bands (ev):

    -1.6084  -1.6084   2.1610   2.1610

     highest occupied level (ev):     6.0603

!    total energy              =     -19.26011713 Ry
     estimated scf accuracy    <          2.8E-09 Ry

     The total energy is the sum of the following terms:
     one-electron contribution =       5.07991380 Ry
     hartree contribution      =       1.11083053 Ry
     xc contribution           =      -8.62667975 Ry
     ewald contribution        =     -16.82418171 Ry

     convergence has been achieved in   6 iterations

     Forces acting on atoms (cartesian axes, Ry/au):

     atom    1 type  1   force =     0.00000000    0.00000000   -0.00000000
     atom    2 type  1   force =    -0.00000000   -0.00000000    0.00000000

     Total force =     0.000000     Total SCF correction =     0.000000


     Computing stress (Cartesian axis) and pressure

          total   stress  (Ry/bohr**3)                   (kbar)     P=      -11.19
  -0.00007606  -0.00000000   0.00000000          -11.19       -0.00        0.00
   0.00000000  -0.00007606  -0.00000000            0.00      -11.19       -0.00
  -0.00000000  -0.00000000  -0.00007606           -0.00       -0.00      -11.19


     BFGS Geometry Optimization
     Energy error            =      0.0E+00 Ry
     Gradient error          =      4.9E-32 Ry/Bohr

     bfgs converged in   1 scf cycles and   0 bfgs steps
     (criteria: energy <  1.0E-04 Ry, force <  1.0E-03 Ry/Bohr)

     End of BFGS Geometry Optimization

     Final energy             =     -19.2601171260 Ry
Begin final coordinates

ATOMIC_POSITIONS (crystal)
Si            0.0000000000        0.0000000000        0.0000000000
Si            0.2500000000        0.2500000000        0.2500000000
End final coordinates



     Writing all to output data dir ./Si_elastic_isotropic.save/
 
     init_run     :      1.23s CPU      1.29s WALL (       1 calls)
     electrons    :      6.16s CPU      7.08s WALL (       1 calls)
     forces       :      0.24s CPU      0.26s WALL (       1 calls)
     stress       :      1.65s CPU      1.68s WALL (       1 calls)

     Called by init_run:
     wfcinit      :      0.26s CPU      0.27s WALL (       1 calls)
     potinit      :      0.02s CPU      0.03s WALL (       1 calls)
     hinit0       :      0.79s CPU      0.81s WALL (       1 calls)

     Called by electrons:
     c_bands      :      3.86s CPU      4.55s WALL (       7 calls)
     sum_band     :      1.49s CPU      1.61s WALL (       7 calls)
     v_of_rho     :      0.11s CPU      0.11s WALL (       7 calls)
     newd         :      0.78s CPU      0.87s WALL (       7 calls)
     mix_rho      :      0.02s CPU      0.03s WALL (       7 calls)

     Called by c_bands:
     init_us_2    :      0.37s CPU      0.41s WALL (     493 calls)
     init_us_2:cp :      0.36s CPU      0.40s WALL (     493 calls)
     ccgdiagg     :      3.06s CPU      3.35s WALL (     203 calls)
     wfcrot       :      0.78s CPU      0.82s WALL (     174 calls)

     Called by *cgdiagg:
     h_psi        :      2.96s CPU      3.20s WALL (    2583 calls)
     s_psi        :      0.28s CPU      0.32s WALL (    4992 calls)

     Called by h_psi:
     h_psi:calbec :      0.27s CPU      0.28s WALL (    2583 calls)
     vloc_psi     :      2.37s CPU      2.58s WALL (    2583 calls)
     add_vuspsi   :      0.19s CPU      0.20s WALL (    2583 calls)
     hs_1psi      :      2.55s CPU      2.78s WALL (    2409 calls)
     s_1psi       :      0.35s CPU      0.39s WALL (    2409 calls)

     General routines
     calbec       :      0.41s CPU      0.46s WALL (    5340 calls)
     fft          :      0.06s CPU      0.07s WALL (      49 calls)
     ffts         :      0.01s CPU      0.01s WALL (      14 calls)
     fftw         :      2.29s CPU      2.48s WALL (    7254 calls)
     interpolate  :      0.02s CPU      0.02s WALL (       7 calls)
 
     Parallel routines
 
     PWSCF        :      9.82s CPU     11.23s WALL

 
   This run was terminated on:  16:51:57  14Mar2022            

=------------------------------------------------------------------------------=
   JOB DONE.
=------------------------------------------------------------------------------=
