
     Program PWSCF v.7.0 starts on 14Mar2022 at 16:51:33 

     This program is part of the open-source Quantum ESPRESSO suite
     for quantum simulation of materials; please cite
         "P. Giannozzi et al., J. Phys.:Condens. Matter 21 395502 (2009);
         "P. Giannozzi et al., J. Phys.:Condens. Matter 29 465901 (2017);
         "P. Giannozzi et al., J. Chem. Phys. 152 154105 (2020);
          URL http://www.quantum-espresso.org", 
     in publications or presentations arising from this work. More details at
     http://www.quantum-espresso.org/quote

     Parallel version (MPI), running on     1 processors

     MPI processes distributed on     1 nodes
     89127 MiB available memory on the printing compute node when the environment starts
 
     Waiting for input...
     Reading input from standard input
Warning: card &CELL ignored
Warning: card  CELL_DYNAMICS = 'BFGS', ignored
Warning: card  PRESS=0.1D0, ignored
Warning: card / ignored

     Current dimensions of program PWSCF are:
     Max number of different atomic species (ntypx) = 10
     Max number of k-points (npk) =  40000
     Max angular momentum in pseudopotentials (lmaxx) =  4
     Message from routine setup:
     using ibrav=0 with symmetry is DISCOURAGED, use correct ibrav instead

     Subspace diagonalization in iterative solution of the eigenvalue problem:
     a serial algorithm will be used

 
     G-vector sticks info
     --------------------
     sticks:   dense  smooth     PW     G-vecs:    dense   smooth      PW
     Sum        1069     433    139                23409     5961    1067
 
     Using Slab Decomposition
 


     bravais-lattice index     =            0
     lattice parameter (alat)  =      10.2050  a.u.
     unit-cell volume          =     267.2897 (a.u.)^3
     number of atoms/cell      =            2
     number of atomic types    =            1
     number of electrons       =         8.00
     number of Kohn-Sham states=            4
     kinetic-energy cutoff     =      30.0000  Ry
     charge density cutoff     =     300.0000  Ry
     scf convergence threshold =      1.0E-08
     mixing beta               =       0.7000
     number of iterations used =            8  plain     mixing
     energy convergence thresh.=      1.0E-04
     force convergence thresh. =      1.0E-03
     Exchange-correlation= SLA  PZ   NOGX NOGC
                           (   1   1   0   0   0   0   0)
     nstep                     =           50


     celldm(1)=  10.205000  celldm(2)=   0.000000  celldm(3)=   0.000000
     celldm(4)=   0.000000  celldm(5)=   0.000000  celldm(6)=   0.000000

     crystal axes: (cart. coord. in units of alat)
               a(1) = (  -0.501000   0.000000   0.501000 )  
               a(2) = (   0.000000   0.501000   0.501000 )  
               a(3) = (  -0.501000   0.501000   0.000000 )  

     reciprocal axes: (cart. coord. in units 2 pi/alat)
               b(1) = ( -0.998004 -0.998004  0.998004 )  
               b(2) = (  0.998004  0.998004  0.998004 )  
               b(3) = ( -0.998004  0.998004 -0.998004 )  


     PseudoPot. # 1 for Si read from file:
     ./Si_LDA.UPF
     MD5 check sum: b5ade7b37ee992b02096e360e546dc2d
     Pseudo is Ultrasoft + core correction, Zval =  4.0
     Generated by new atomic code, or converted to UPF format
     Using radial grid of  899 points,  6 beta functions with: 
                l(1) =   0
                l(2) =   0
                l(3) =   1
                l(4) =   1
                l(5) =   2
                l(6) =   2
     Q(r) pseudized with  8 coefficients,  rinner =    0.900   0.900   0.900
                                                       0.900   0.900

     atomic species   valence    mass     pseudopotential
        Si             4.00    28.08550     Si( 1.00)

     48 Sym. Ops., with inversion, found (24 have fractional translation)



   Cartesian axes

     site n.     atom                  positions (alat units)
         1           Si  tau(   1) = (   0.0000000   0.0000000   0.0000000  )
         2           Si  tau(   2) = (  -0.2505000   0.2505000   0.2505000  )

     number of k points=    29
                       cart. coord. in units 2pi/alat
        k(    1) = (   0.0000000   0.0000000   0.0000000), wk =   0.0039062
        k(    2) = (  -0.1247505   0.1247505  -0.1247505), wk =   0.0312500
        k(    3) = (  -0.2495010   0.2495010  -0.2495010), wk =   0.0312500
        k(    4) = (  -0.3742515   0.3742515  -0.3742515), wk =   0.0312500
        k(    5) = (   0.4990020  -0.4990020   0.4990020), wk =   0.0156250
        k(    6) = (   0.0000000   0.2495010   0.0000000), wk =   0.0234375
        k(    7) = (  -0.1247505   0.3742515  -0.1247505), wk =   0.0937500
        k(    8) = (  -0.2495010   0.4990020  -0.2495010), wk =   0.0937500
        k(    9) = (   0.6237525  -0.3742515   0.6237525), wk =   0.0937500
        k(   10) = (   0.4990020  -0.2495010   0.4990020), wk =   0.0937500
        k(   11) = (   0.3742515  -0.1247505   0.3742515), wk =   0.0937500
        k(   12) = (   0.2495010   0.0000000   0.2495010), wk =   0.0468750
        k(   13) = (   0.0000000   0.4990020   0.0000000), wk =   0.0234375
        k(   14) = (  -0.1247505   0.6237525  -0.1247505), wk =   0.0937500
        k(   15) = (   0.7485030  -0.2495010   0.7485030), wk =   0.0937500
        k(   16) = (   0.6237525  -0.1247505   0.6237525), wk =   0.0937500
        k(   17) = (   0.4990020   0.0000000   0.4990020), wk =   0.0468750
        k(   18) = (   0.0000000   0.7485030   0.0000000), wk =   0.0234375
        k(   19) = (   0.8732535  -0.1247505   0.8732535), wk =   0.0937500
        k(   20) = (   0.7485030   0.0000000   0.7485030), wk =   0.0468750
        k(   21) = (   0.0000000  -0.9980040   0.0000000), wk =   0.0117188
        k(   22) = (  -0.2495010   0.4990020   0.0000000), wk =   0.0937500
        k(   23) = (   0.6237525  -0.3742515   0.8732535), wk =   0.1875000
        k(   24) = (   0.4990020  -0.2495010   0.7485030), wk =   0.0937500
        k(   25) = (   0.7485030  -0.2495010   0.9980040), wk =   0.0937500
        k(   26) = (   0.6237525  -0.1247505   0.8732535), wk =   0.1875000
        k(   27) = (   0.4990020   0.0000000   0.7485030), wk =   0.0937500
        k(   28) = (  -0.2495010  -0.9980040  -0.0000000), wk =   0.0468750
        k(   29) = (  -0.4990020  -0.9980040   0.0000000), wk =   0.0234375

     Dense  grid:    23409 G-vectors     FFT dimensions: (  40,  40,  40)

     Smooth grid:     5961 G-vectors     FFT dimensions: (  25,  25,  25)

     Estimated max dynamical RAM per process >      88.95 MB

     Initial potential from superposition of free atoms

     starting charge       7.9988, renormalised to       8.0000
     Starting wfcs are    8 randomized atomic wfcs

     total cpu time spent up to now is        1.9 secs

     Self-consistent Calculation

     iteration #  1     ecut=    30.00 Ry     beta= 0.70
     CG style diagonalization
     ethr =  1.00E-02,  avg # of iterations =  3.0

     Threshold (ethr) on eigenvalues was too large:
     Diagonalizing with lowered threshold

     CG style diagonalization
     ethr =  7.25E-04,  avg # of iterations =  2.0

     total cpu time spent up to now is        3.5 secs

     total energy              =     -19.25666392 Ry
     estimated scf accuracy    <       0.05884092 Ry

     iteration #  2     ecut=    30.00 Ry     beta= 0.70
     CG style diagonalization
     ethr =  7.36E-04,  avg # of iterations =  3.0

     total cpu time spent up to now is        4.5 secs

     total energy              =     -19.25960145 Ry
     estimated scf accuracy    <       0.00197072 Ry

     iteration #  3     ecut=    30.00 Ry     beta= 0.70
     CG style diagonalization
     ethr =  2.46E-05,  avg # of iterations =  4.1

     total cpu time spent up to now is        5.6 secs

     total energy              =     -19.26017012 Ry
     estimated scf accuracy    <       0.00006970 Ry

     iteration #  4     ecut=    30.00 Ry     beta= 0.70
     CG style diagonalization
     ethr =  8.71E-07,  avg # of iterations =  4.3

     total cpu time spent up to now is        6.7 secs

     total energy              =     -19.26020476 Ry
     estimated scf accuracy    <       0.00001470 Ry

     iteration #  5     ecut=    30.00 Ry     beta= 0.70
     CG style diagonalization
     ethr =  1.84E-07,  avg # of iterations =  3.9

     total cpu time spent up to now is        7.8 secs

     total energy              =     -19.26020754 Ry
     estimated scf accuracy    <       0.00000005 Ry

     iteration #  6     ecut=    30.00 Ry     beta= 0.70
     CG style diagonalization
     ethr =  6.39E-10,  avg # of iterations =  5.7

     total cpu time spent up to now is        9.1 secs

     End of self-consistent calculation

          k = 0.0000 0.0000 0.0000 (   725 PWs)   bands (ev):

    -5.9157   6.1230   6.1230   6.1230

          k =-0.1248 0.1248-0.1248 (   740 PWs)   bands (ev):

    -5.7097   4.5043   5.8301   5.8301

          k =-0.2495 0.2495-0.2495 (   751 PWs)   bands (ev):

    -5.1081   2.1559   5.3563   5.3563

          k =-0.3743 0.3743-0.3743 (   751 PWs)   bands (ev):

    -4.2029   0.1162   5.0286   5.0286

          k = 0.4990-0.4990 0.4990 (   754 PWs)   bands (ev):

    -3.5516  -0.9223   4.9168   4.9168

          k = 0.0000 0.2495 0.0000 (   737 PWs)   bands (ev):

    -5.6403   4.7800   5.3035   5.3035

          k =-0.1248 0.3743-0.1248 (   745 PWs)   bands (ev):

    -5.1671   2.8722   4.7874   4.8608

          k =-0.2495 0.4990-0.2495 (   746 PWs)   bands (ev):

    -4.3429   0.7913   4.2613   4.5191

          k = 0.6238-0.3743 0.6238 (   744 PWs)   bands (ev):

    -3.4663  -0.6924   3.8105   4.5464

          k = 0.4990-0.2495 0.4990 (   745 PWs)   bands (ev):

    -3.7161  -0.3154   3.6250   4.8476

          k = 0.3743-0.1248 0.3743 (   747 PWs)   bands (ev):

    -4.6529   1.4577   3.7739   5.3449

          k = 0.2495 0.0000 0.2495 (   753 PWs)   bands (ev):

    -5.3703   3.4177   4.4615   5.8305

          k = 0.0000 0.4990 0.0000 (   729 PWs)   bands (ev):

    -4.8238   2.5912   4.2100   4.2100

          k =-0.1248 0.6238-0.1248 (   741 PWs)   bands (ev):

    -4.1067   1.1581   3.4092   3.8899

          k = 0.7485-0.2495 0.7485 (   739 PWs)   bands (ev):

    -3.1679  -0.3015   2.5294   3.8945

          k = 0.6238-0.1248 0.6238 (   737 PWs)   bands (ev):

    -2.9582  -0.5657   2.0620   4.2175

          k = 0.4990 0.0000 0.4990 (   742 PWs)   bands (ev):

    -3.8502   0.6107   2.3016   4.7834

          k = 0.0000 0.7485 0.0000 (   741 PWs)   bands (ev):

    -3.4993   0.3528   3.4878   3.4878

          k = 0.8733-0.1248 0.8733 (   743 PWs)   bands (ev):

    -2.5926  -0.7386   2.6305   3.4115

          k = 0.7485 0.0000 0.7485 (   740 PWs)   bands (ev):

    -2.1422  -1.1420   1.7403   3.6723

          k = 0.0000-0.9980 0.0000 (   740 PWs)   bands (ev):

    -1.7341  -1.7341   3.2403   3.2403

          k =-0.2495 0.4990 0.0000 (   745 PWs)   bands (ev):

    -4.5734   1.8094   3.3612   4.6774

          k = 0.6238-0.3743 0.8733 (   743 PWs)   bands (ev):

    -3.6742   0.2408   2.7478   4.1660

          k = 0.4990-0.2495 0.7485 (   740 PWs)   bands (ev):

    -3.0094  -0.7206   2.6199   3.9321

          k = 0.7485-0.2495 0.9980 (   734 PWs)   bands (ev):

    -3.2972   0.1334   2.7043   3.3199

          k = 0.6238-0.1248 0.8733 (   738 PWs)   bands (ev):

    -2.4094  -0.8436   1.9887   3.1140

          k = 0.4990 0.0000 0.7485 (   740 PWs)   bands (ev):

    -2.7635  -0.4784   1.8175   3.4969

          k =-0.2495-0.9980-0.0000 (   742 PWs)   bands (ev):

    -1.6526  -1.6526   2.6498   2.6498

          k =-0.4990-0.9980 0.0000 (   744 PWs)   bands (ev):

    -1.5623  -1.5623   2.1983   2.1983

     highest occupied level (ev):     6.1230

!    total energy              =     -19.26020774 Ry
     estimated scf accuracy    <          3.0E-09 Ry

     The total energy is the sum of the following terms:
     one-electron contribution =       5.12593176 Ry
     hartree contribution      =       1.10570274 Ry
     xc contribution           =      -8.63407933 Ry
     ewald contribution        =     -16.85776291 Ry

     convergence has been achieved in   6 iterations

     Forces acting on atoms (cartesian axes, Ry/au):

     atom    1 type  1   force =     0.00000000   -0.00000000   -0.00000000
     atom    2 type  1   force =    -0.00000000   -0.00000000    0.00000000

     Total force =     0.000000     Total SCF correction =     0.000000


     Computing stress (Cartesian axis) and pressure

          total   stress  (Ry/bohr**3)                   (kbar)     P=       -5.62
  -0.00003818  -0.00000000  -0.00000000           -5.62       -0.00       -0.00
  -0.00000000  -0.00003818   0.00000000           -0.00       -5.62        0.00
  -0.00000000   0.00000000  -0.00003818           -0.00        0.00       -5.62


     BFGS Geometry Optimization
     Energy error            =      0.0E+00 Ry
     Gradient error          =      6.6E-32 Ry/Bohr

     bfgs converged in   1 scf cycles and   0 bfgs steps
     (criteria: energy <  1.0E-04 Ry, force <  1.0E-03 Ry/Bohr)

     End of BFGS Geometry Optimization

     Final energy             =     -19.2602077437 Ry
Begin final coordinates

ATOMIC_POSITIONS (crystal)
Si            0.0000000000        0.0000000000        0.0000000000
Si            0.2500000000        0.2500000000        0.2500000000
End final coordinates



     Writing all to output data dir ./Si_elastic_isotropic.save/
 
     init_run     :      1.25s CPU      1.31s WALL (       1 calls)
     electrons    :      6.29s CPU      7.25s WALL (       1 calls)
     forces       :      0.24s CPU      0.25s WALL (       1 calls)
     stress       :      1.63s CPU      1.66s WALL (       1 calls)

     Called by init_run:
     wfcinit      :      0.28s CPU      0.29s WALL (       1 calls)
     potinit      :      0.02s CPU      0.03s WALL (       1 calls)
     hinit0       :      0.79s CPU      0.81s WALL (       1 calls)

     Called by electrons:
     c_bands      :      4.03s CPU      4.77s WALL (       7 calls)
     sum_band     :      1.47s CPU      1.57s WALL (       7 calls)
     v_of_rho     :      0.11s CPU      0.11s WALL (       7 calls)
     newd         :      0.75s CPU      0.85s WALL (       7 calls)
     mix_rho      :      0.02s CPU      0.02s WALL (       7 calls)

     Called by c_bands:
     init_us_2    :      0.37s CPU      0.41s WALL (     493 calls)
     init_us_2:cp :      0.36s CPU      0.40s WALL (     493 calls)
     ccgdiagg     :      3.21s CPU      3.55s WALL (     203 calls)
     wfcrot       :      0.80s CPU      0.85s WALL (     174 calls)

     Called by *cgdiagg:
     h_psi        :      3.01s CPU      3.27s WALL (    2606 calls)
     s_psi        :      0.37s CPU      0.43s WALL (    5038 calls)

     Called by h_psi:
     h_psi:calbec :      0.28s CPU      0.30s WALL (    2606 calls)
     vloc_psi     :      2.37s CPU      2.58s WALL (    2606 calls)
     add_vuspsi   :      0.23s CPU      0.26s WALL (    2606 calls)
     hs_1psi      :      2.62s CPU      2.88s WALL (    2432 calls)
     s_1psi       :      0.43s CPU      0.49s WALL (    2432 calls)

     General routines
     calbec       :      0.45s CPU      0.51s WALL (    5386 calls)
     fft          :      0.06s CPU      0.07s WALL (      49 calls)
     ffts         :      0.01s CPU      0.01s WALL (      14 calls)
     fftw         :      2.28s CPU      2.47s WALL (    7300 calls)
     interpolate  :      0.02s CPU      0.02s WALL (       7 calls)
 
     Parallel routines
 
     PWSCF        :      9.92s CPU     11.39s WALL

 
   This run was terminated on:  16:51:44  14Mar2022            

=------------------------------------------------------------------------------=
   JOB DONE.
=------------------------------------------------------------------------------=
