
     Program PWSCF v.7.0 starts on 13Mar2022 at 10:21:31 

     This program is part of the open-source Quantum ESPRESSO suite
     for quantum simulation of materials; please cite
         "P. Giannozzi et al., J. Phys.:Condens. Matter 21 395502 (2009);
         "P. Giannozzi et al., J. Phys.:Condens. Matter 29 465901 (2017);
         "P. Giannozzi et al., J. Chem. Phys. 152 154105 (2020);
          URL http://www.quantum-espresso.org", 
     in publications or presentations arising from this work. More details at
     http://www.quantum-espresso.org/quote

     Parallel version (MPI), running on     1 processors

     MPI processes distributed on     1 nodes
     88764 MiB available memory on the printing compute node when the environment starts
 
     Waiting for input...
     Reading input from standard input
Warning: card &CELL ignored
Warning: card  CELL_DYNAMICS = 'BFGS', ignored
Warning: card  PRESS=0.1D0, ignored
Warning: card / ignored

     Current dimensions of program PWSCF are:
     Max number of different atomic species (ntypx) = 10
     Max number of k-points (npk) =  40000
     Max angular momentum in pseudopotentials (lmaxx) =  4
     Message from routine setup:
     using ibrav=0 with symmetry is DISCOURAGED, use correct ibrav instead

     Subspace diagonalization in iterative solution of the eigenvalue problem:
     a serial algorithm will be used

 
     G-vector sticks info
     --------------------
     sticks:   dense  smooth     PW     G-vecs:    dense   smooth      PW
     Sum        2161     721    235                67035    12895    2333
 
     Using Slab Decomposition
 


     bravais-lattice index     =            0
     lattice parameter (alat)  =      10.2600  a.u.
     unit-cell volume          =     269.9823 (a.u.)^3
     number of atoms/cell      =            2
     number of atomic types    =            1
     number of electrons       =         8.00
     number of Kohn-Sham states=            4
     kinetic-energy cutoff     =      50.0000  Ry
     charge density cutoff     =     600.0000  Ry
     scf convergence threshold =      1.0E-08
     mixing beta               =       0.7000
     number of iterations used =            8  plain     mixing
     Exchange-correlation= SLA  PZ   NOGX NOGC
                           (   1   1   0   0   0   0   0)

     celldm(1)=  10.260000  celldm(2)=   0.000000  celldm(3)=   0.000000
     celldm(4)=   0.000000  celldm(5)=   0.000000  celldm(6)=   0.000000

     crystal axes: (cart. coord. in units of alat)
               a(1) = (  -0.497000   0.000000   0.497000 )  
               a(2) = (   0.000000   0.497000   0.497000 )  
               a(3) = (  -0.506000   0.506000   0.000000 )  

     reciprocal axes: (cart. coord. in units 2 pi/alat)
               b(1) = ( -1.006036 -1.006036  1.006036 )  
               b(2) = (  1.006036  1.006036  1.006036 )  
               b(3) = ( -0.988142  0.988142 -0.988142 )  


     PseudoPot. # 1 for Si read from file:
     ./Si_LDA.UPF
     MD5 check sum: b5ade7b37ee992b02096e360e546dc2d
     Pseudo is Ultrasoft + core correction, Zval =  4.0
     Generated by new atomic code, or converted to UPF format
     Using radial grid of  899 points,  6 beta functions with: 
                l(1) =   0
                l(2) =   0
                l(3) =   1
                l(4) =   1
                l(5) =   2
                l(6) =   2
     Q(r) pseudized with  8 coefficients,  rinner =    0.900   0.900   0.900
                                                       0.900   0.900

     atomic species   valence    mass     pseudopotential
        Si             4.00    28.08550     Si( 1.00)

      4 Sym. Ops., with inversion, found ( 2 have fractional translation)



   Cartesian axes

     site n.     atom                  positions (alat units)
         1           Si  tau(   1) = (   0.0000000   0.0000000   0.0000000  )
         2           Si  tau(   2) = (  -0.2507500   0.2507500   0.2485000  )

     number of k points=   282

     Number of k-points >= 100: set verbosity='high' to print them.

     Dense  grid:    67035 G-vectors     FFT dimensions: (  60,  60,  60)

     Smooth grid:    12895 G-vectors     FFT dimensions: (  36,  36,  36)

     Estimated max dynamical RAM per process >     278.58 MB

     Initial potential from superposition of free atoms

     starting charge       7.9988, renormalised to       8.0000
     Starting wfcs are    8 randomized atomic wfcs

     total cpu time spent up to now is       11.9 secs

     Self-consistent Calculation

     iteration #  1     ecut=    50.00 Ry     beta= 0.70
     CG style diagonalization
     ethr =  1.00E-02,  avg # of iterations =  3.0

     Threshold (ethr) on eigenvalues was too large:
     Diagonalizing with lowered threshold

     CG style diagonalization
     ethr =  7.17E-04,  avg # of iterations =  2.0

     total cpu time spent up to now is       39.5 secs

     total energy              =     -19.25644603 Ry
     estimated scf accuracy    <       0.05776890 Ry

     iteration #  2     ecut=    50.00 Ry     beta= 0.70
     CG style diagonalization
     ethr =  7.22E-04,  avg # of iterations =  3.0

     total cpu time spent up to now is       54.7 secs

     total energy              =     -19.25927365 Ry
     estimated scf accuracy    <       0.00196916 Ry

     iteration #  3     ecut=    50.00 Ry     beta= 0.70
     CG style diagonalization
     ethr =  2.46E-05,  avg # of iterations =  4.1

     total cpu time spent up to now is       74.5 secs

     total energy              =     -19.25984247 Ry
     estimated scf accuracy    <       0.00006722 Ry

     iteration #  4     ecut=    50.00 Ry     beta= 0.70
     CG style diagonalization
     ethr =  8.40E-07,  avg # of iterations =  4.3

     total cpu time spent up to now is       94.9 secs

     total energy              =     -19.25987848 Ry
     estimated scf accuracy    <       0.00001417 Ry

     iteration #  5     ecut=    50.00 Ry     beta= 0.70
     CG style diagonalization
     ethr =  1.77E-07,  avg # of iterations =  3.9

     total cpu time spent up to now is      113.7 secs

     total energy              =     -19.25988117 Ry
     estimated scf accuracy    <       0.00000005 Ry

     iteration #  6     ecut=    50.00 Ry     beta= 0.70
     CG style diagonalization
     ethr =  6.11E-10,  avg # of iterations =  5.9

     total cpu time spent up to now is      140.3 secs

     End of self-consistent calculation

     Number of k-points >= 100: set verbosity='high' to print the bands.

     highest occupied level (ev):     6.0597

!    total energy              =     -19.25988135 Ry
     estimated scf accuracy    <          4.7E-09 Ry

     The total energy is the sum of the following terms:
     one-electron contribution =       5.04718410 Ry
     hartree contribution      =       1.11445040 Ry
     xc contribution           =      -8.62130854 Ry
     ewald contribution        =     -16.80020732 Ry

     convergence has been achieved in   6 iterations

     Forces acting on atoms (cartesian axes, Ry/au):

     atom    1 type  1   force =     0.00299584   -0.00299584    0.00634101
     atom    2 type  1   force =    -0.00299584    0.00299584   -0.00634101

     Total force =     0.010785     Total SCF correction =     0.000002


     Computing stress (Cartesian axis) and pressure

          total   stress  (Ry/bohr**3)                   (kbar)     P=      -14.51
  -0.00011824   0.00012178  -0.00005923          -17.39       17.91       -8.71
   0.00012178  -0.00011824   0.00005923           17.91      -17.39        8.71
  -0.00005923   0.00005923  -0.00005943           -8.71        8.71       -8.74


     Writing all to output data dir ./Si_elastic_tetra.save/
 
     init_run     :      9.26s CPU     10.13s WALL (       1 calls)
     electrons    :    118.15s CPU    128.51s WALL (       1 calls)
     forces       :      2.16s CPU      2.38s WALL (       1 calls)
     stress       :     12.39s CPU     12.59s WALL (       1 calls)

     Called by init_run:
     wfcinit      :      6.96s CPU      7.34s WALL (       1 calls)
     potinit      :      0.19s CPU      0.27s WALL (       1 calls)
     hinit0       :      1.51s CPU      1.68s WALL (       1 calls)

     Called by electrons:
     c_bands      :     98.41s CPU    107.66s WALL (       7 calls)
     sum_band     :     16.77s CPU     17.53s WALL (       7 calls)
     v_of_rho     :      0.37s CPU      0.45s WALL (       7 calls)
     newd         :      2.91s CPU      3.19s WALL (       7 calls)
     mix_rho      :      0.07s CPU      0.08s WALL (       7 calls)

     Called by c_bands:
     init_us_2    :      7.90s CPU      8.40s WALL (    4794 calls)
     init_us_2:cp :      7.77s CPU      8.32s WALL (    4794 calls)
     ccgdiagg     :     78.98s CPU     84.17s WALL (    1974 calls)
     wfcrot       :     21.17s CPU     22.10s WALL (    1692 calls)

     Called by *cgdiagg:
     h_psi        :     82.33s CPU     86.35s WALL (   25644 calls)
     s_psi        :      7.83s CPU      9.04s WALL (   49596 calls)

     Called by h_psi:
     h_psi:calbec :      5.38s CPU      5.68s WALL (   25644 calls)
     vloc_psi     :     70.64s CPU     73.89s WALL (   25644 calls)
     add_vuspsi   :      4.67s CPU      5.18s WALL (   25644 calls)
     hs_1psi      :     68.20s CPU     72.01s WALL (   23952 calls)
     s_1psi       :      8.25s CPU      9.22s WALL (   23952 calls)

     General routines
     calbec       :      9.18s CPU     10.33s WALL (   52980 calls)
     fft          :      0.22s CPU      0.25s WALL (      49 calls)
     ffts         :      0.01s CPU      0.02s WALL (      14 calls)
     fftw         :     67.04s CPU     70.04s WALL (   71592 calls)
     interpolate  :      0.05s CPU      0.07s WALL (       7 calls)
 
     Parallel routines
 
     PWSCF        :   2m22.81s CPU   2m42.96s WALL

 
   This run was terminated on:  10:24:14  13Mar2022            

=------------------------------------------------------------------------------=
   JOB DONE.
=------------------------------------------------------------------------------=
