
     Program PWSCF v.7.0 starts on 15Mar2022 at  0:35:51 

     This program is part of the open-source Quantum ESPRESSO suite
     for quantum simulation of materials; please cite
         "P. Giannozzi et al., J. Phys.:Condens. Matter 21 395502 (2009);
         "P. Giannozzi et al., J. Phys.:Condens. Matter 29 465901 (2017);
         "P. Giannozzi et al., J. Chem. Phys. 152 154105 (2020);
          URL http://www.quantum-espresso.org", 
     in publications or presentations arising from this work. More details at
     http://www.quantum-espresso.org/quote

     Parallel version (MPI), running on     1 processors

     MPI processes distributed on     1 nodes
     87990 MiB available memory on the printing compute node when the environment starts
 
     Waiting for input...
     Reading input from standard input
Warning: card &CELL ignored
Warning: card  CELL_DYNAMICS = 'BFGS', ignored
Warning: card  PRESS=0.1D0, ignored
Warning: card / ignored

     Current dimensions of program PWSCF are:
     Max number of different atomic species (ntypx) = 10
     Max number of k-points (npk) =  40000
     Max angular momentum in pseudopotentials (lmaxx) =  4
     Message from routine setup:
     using ibrav=0 with symmetry is DISCOURAGED, use correct ibrav instead

     Subspace diagonalization in iterative solution of the eigenvalue problem:
     a serial algorithm will be used

 
     G-vector sticks info
     --------------------
     sticks:   dense  smooth     PW     G-vecs:    dense   smooth      PW
     Sum        1069     433    139                23229     5897    1075
 
     Using Slab Decomposition
 


     bravais-lattice index     =            0
     lattice parameter (alat)  =      10.1900  a.u.
     unit-cell volume          =     264.5098 (a.u.)^3
     number of atoms/cell      =            2
     number of atomic types    =            1
     number of electrons       =         8.00
     number of Kohn-Sham states=            4
     kinetic-energy cutoff     =      30.0000  Ry
     charge density cutoff     =     300.0000  Ry
     scf convergence threshold =      1.0E-08
     mixing beta               =       0.7000
     number of iterations used =            8  plain     mixing
     energy convergence thresh.=      1.0E-04
     force convergence thresh. =      1.0E-03
     Exchange-correlation= SLA  PZ   NOGX NOGC
                           (   1   1   0   0   0   0   0)
     nstep                     =           50


     celldm(1)=  10.190000  celldm(2)=   0.000000  celldm(3)=   0.000000
     celldm(4)=   0.000000  celldm(5)=   0.000000  celldm(6)=   0.000000

     crystal axes: (cart. coord. in units of alat)
               a(1) = (  -0.498000   0.000000   0.504000 )  
               a(2) = (   0.000000   0.498000   0.504000 )  
               a(3) = (  -0.498000   0.498000   0.000000 )  

     reciprocal axes: (cart. coord. in units 2 pi/alat)
               b(1) = ( -1.004016 -1.004016  0.992063 )  
               b(2) = (  1.004016  1.004016  0.992063 )  
               b(3) = ( -1.004016  1.004016 -0.992063 )  


     PseudoPot. # 1 for Si read from file:
     ./Si_LDA.UPF
     MD5 check sum: b5ade7b37ee992b02096e360e546dc2d
     Pseudo is Ultrasoft + core correction, Zval =  4.0
     Generated by new atomic code, or converted to UPF format
     Using radial grid of  899 points,  6 beta functions with: 
                l(1) =   0
                l(2) =   0
                l(3) =   1
                l(4) =   1
                l(5) =   2
                l(6) =   2
     Q(r) pseudized with  8 coefficients,  rinner =    0.900   0.900   0.900
                                                       0.900   0.900

     atomic species   valence    mass     pseudopotential
        Si             4.00    28.08550     Si( 1.00)

     16 Sym. Ops., with inversion, found ( 8 have fractional translation)



   Cartesian axes

     site n.     atom                  positions (alat units)
         1           Si  tau(   1) = (   0.0000000   0.0000000   0.0000000  )
         2           Si  tau(   2) = (  -0.2490000   0.2490000   0.2520000  )

     number of k points=    59
                       cart. coord. in units 2pi/alat
        k(    1) = (   0.0000000   0.0000000   0.0000000), wk =   0.0039062
        k(    2) = (  -0.1255020   0.1255020  -0.1240079), wk =   0.0312500
        k(    3) = (  -0.2510040   0.2510040  -0.2480159), wk =   0.0312500
        k(    4) = (  -0.3765060   0.3765060  -0.3720238), wk =   0.0312500
        k(    5) = (   0.5020080  -0.5020080   0.4960317), wk =   0.0156250
        k(    6) = (   0.0000000   0.2510040   0.0000000), wk =   0.0156250
        k(    7) = (  -0.1255020   0.3765060  -0.1240079), wk =   0.0625000
        k(    8) = (  -0.2510040   0.5020080  -0.2480159), wk =   0.0625000
        k(    9) = (   0.6275100  -0.3765060   0.6200397), wk =   0.0625000
        k(   10) = (   0.5020080  -0.2510040   0.4960317), wk =   0.0625000
        k(   11) = (   0.3765060  -0.1255020   0.3720238), wk =   0.0625000
        k(   12) = (   0.2510040   0.0000000   0.2480159), wk =   0.0312500
        k(   13) = (   0.0000000   0.5020080   0.0000000), wk =   0.0156250
        k(   14) = (  -0.1255020   0.6275100  -0.1240079), wk =   0.0625000
        k(   15) = (   0.7530120  -0.2510040   0.7440476), wk =   0.0625000
        k(   16) = (   0.6275100  -0.1255020   0.6200397), wk =   0.0625000
        k(   17) = (   0.5020080   0.0000000   0.4960317), wk =   0.0312500
        k(   18) = (   0.0000000   0.7530120   0.0000000), wk =   0.0156250
        k(   19) = (   0.8785141  -0.1255020   0.8680556), wk =   0.0625000
        k(   20) = (   0.7530120   0.0000000   0.7440476), wk =   0.0312500
        k(   21) = (   0.0000000  -1.0040161   0.0000000), wk =   0.0078125
        k(   22) = (   0.0000000   0.0000000   0.2480159), wk =   0.0078125
        k(   23) = (  -0.2510040   0.2510040   0.0000000), wk =   0.0156250
        k(   24) = (  -0.3765060   0.3765060  -0.1240079), wk =   0.0312500
        k(   25) = (   0.5020080  -0.5020080   0.7440476), wk =   0.0312500
        k(   26) = (   0.3765060  -0.3765060   0.6200397), wk =   0.0312500
        k(   27) = (   0.2510040  -0.2510040   0.4960317), wk =   0.0312500
        k(   28) = (   0.1255020  -0.1255020   0.3720238), wk =   0.0312500
        k(   29) = (  -0.2510040   0.5020080   0.0000000), wk =   0.0312500
        k(   30) = (   0.6275100  -0.3765060   0.8680556), wk =   0.0625000
        k(   31) = (   0.5020080  -0.2510040   0.7440476), wk =   0.0625000
        k(   32) = (   0.3765060  -0.1255020   0.6200397), wk =   0.0625000
        k(   33) = (   0.2510040   0.0000000   0.4960317), wk =   0.0312500
        k(   34) = (   0.0000000   0.5020080   0.2480159), wk =   0.0312500
        k(   35) = (   0.7530120  -0.2510040   0.9920635), wk =   0.0312500
        k(   36) = (   0.6275100  -0.1255020   0.8680556), wk =   0.0625000
        k(   37) = (   0.5020080   0.0000000   0.7440476), wk =   0.0312500
        k(   38) = (  -0.8785141  -0.3765060  -0.6200397), wk =   0.0625000
        k(   39) = (  -1.0040161  -0.2510040  -0.7440476), wk =   0.0312500
        k(   40) = (  -0.2510040  -1.0040161   0.0000000), wk =   0.0156250
        k(   41) = (  -0.7530120  -0.2510040  -0.4960317), wk =   0.0312500
        k(   42) = (  -0.8785141  -0.1255020  -0.6200397), wk =   0.0625000
        k(   43) = (   0.0000000  -1.0040161   0.2480159), wk =   0.0156250
        k(   44) = (  -0.7530120   0.0000000  -0.4960317), wk =   0.0312500
        k(   45) = (   0.0000000   0.0000000   0.4960317), wk =   0.0078125
        k(   46) = (   0.5020080  -0.5020080   0.9920635), wk =   0.0156250
        k(   47) = (   0.3765060  -0.3765060   0.8680556), wk =   0.0312500
        k(   48) = (   0.2510040  -0.2510040   0.7440476), wk =   0.0312500
        k(   49) = (   0.1255020  -0.1255020   0.6200397), wk =   0.0312500
        k(   50) = (   0.5020080  -0.2510040   0.9920635), wk =   0.0312500
        k(   51) = (   0.3765060  -0.1255020   0.8680556), wk =   0.0625000
        k(   52) = (   0.2510040   0.0000000   0.7440476), wk =   0.0312500
        k(   53) = (  -0.5020080  -1.0040161   0.0000000), wk =   0.0156250
        k(   54) = (   0.0000000  -1.0040161   0.4960317), wk =   0.0078125
        k(   55) = (   0.0000000   0.0000000   0.7440476), wk =   0.0078125
        k(   56) = (   0.2510040  -0.2510040   0.9920635), wk =   0.0156250
        k(   57) = (   0.1255020  -0.1255020   0.8680556), wk =   0.0312500
        k(   58) = (  -0.7530120  -1.0040161   0.0000000), wk =   0.0156250
        k(   59) = (   0.0000000   0.0000000  -0.9920635), wk =   0.0039062

     Dense  grid:    23229 G-vectors     FFT dimensions: (  40,  40,  40)

     Smooth grid:     5897 G-vectors     FFT dimensions: (  32,  32,  32)

     Estimated max dynamical RAM per process >      89.65 MB

     Initial potential from superposition of free atoms

     starting charge       7.9988, renormalised to       8.0000
     Starting wfcs are    8 randomized atomic wfcs

     total cpu time spent up to now is        2.3 secs

     Self-consistent Calculation

     iteration #  1     ecut=    30.00 Ry     beta= 0.70
     CG style diagonalization
     ethr =  1.00E-02,  avg # of iterations =  3.0

     Threshold (ethr) on eigenvalues was too large:
     Diagonalizing with lowered threshold

     CG style diagonalization
     ethr =  7.38E-04,  avg # of iterations =  2.0

     total cpu time spent up to now is        5.5 secs

     total energy              =     -19.25644902 Ry
     estimated scf accuracy    <       0.05987806 Ry

     iteration #  2     ecut=    30.00 Ry     beta= 0.70
     CG style diagonalization
     ethr =  7.48E-04,  avg # of iterations =  3.0

     total cpu time spent up to now is        7.3 secs

     total energy              =     -19.25950761 Ry
     estimated scf accuracy    <       0.00196863 Ry

     iteration #  3     ecut=    30.00 Ry     beta= 0.70
     CG style diagonalization
     ethr =  2.46E-05,  avg # of iterations =  4.1

     total cpu time spent up to now is        9.5 secs

     total energy              =     -19.26009166 Ry
     estimated scf accuracy    <       0.00007162 Ry

     iteration #  4     ecut=    30.00 Ry     beta= 0.70
     CG style diagonalization
     ethr =  8.95E-07,  avg # of iterations =  4.3

     total cpu time spent up to now is       11.7 secs

     total energy              =     -19.26012771 Ry
     estimated scf accuracy    <       0.00001510 Ry

     iteration #  5     ecut=    30.00 Ry     beta= 0.70
     CG style diagonalization
     ethr =  1.89E-07,  avg # of iterations =  4.0

     total cpu time spent up to now is       13.9 secs

     total energy              =     -19.26013062 Ry
     estimated scf accuracy    <       0.00000005 Ry

     iteration #  6     ecut=    30.00 Ry     beta= 0.70
     CG style diagonalization
     ethr =  6.76E-10,  avg # of iterations =  5.7

     total cpu time spent up to now is       16.6 secs

     End of self-consistent calculation

          k = 0.0000 0.0000 0.0000 (   725 PWs)   bands (ev):

    -5.8776   6.1763   6.2623   6.2623

          k =-0.1255 0.1255-0.1240 (   731 PWs)   bands (ev):

    -5.6697   4.6108   5.9042   5.9717

          k =-0.2510 0.2510-0.2480 (   742 PWs)   bands (ev):

    -5.0624   2.2469   5.4150   5.5052

          k =-0.3765 0.3765-0.3720 (   742 PWs)   bands (ev):

    -4.1474   0.1896   5.0758   5.1852

          k = 0.5020-0.5020 0.4960 (   738 PWs)   bands (ev):

    -3.4864  -0.8615   4.9597   5.0767

          k = 0.0000 0.2510 0.0000 (   725 PWs)   bands (ev):

    -5.5977   4.9263   5.3607   5.4136

          k =-0.1255 0.3765-0.1240 (   735 PWs)   bands (ev):

    -5.1184   2.9765   4.8571   4.9811

          k =-0.2510 0.5020-0.2480 (   735 PWs)   bands (ev):

    -4.2845   0.8707   4.3799   4.5936

          k = 0.6275-0.3765 0.6200 (   737 PWs)   bands (ev):

    -3.3982  -0.6277   3.9327   4.6151

          k = 0.5020-0.2510 0.4960 (   738 PWs)   bands (ev):

    -3.6581  -0.2381   3.7435   4.9174

          k = 0.3765-0.1255 0.3720 (   736 PWs)   bands (ev):

    -4.6060   1.5542   3.8865   5.4212

          k = 0.2510 0.0000 0.2480 (   743 PWs)   bands (ev):

    -5.3290   3.5256   4.5744   5.9172

          k = 0.0000 0.5020 0.0000 (   729 PWs)   bands (ev):

    -4.7683   2.7325   4.2636   4.2909

          k =-0.1255 0.6275-0.1240 (   733 PWs)   bands (ev):

    -4.0412   1.2720   3.4893   3.9519

          k = 0.7530-0.2510 0.7440 (   734 PWs)   bands (ev):

    -3.0917  -0.2158   2.6217   3.9537

          k = 0.6275-0.1255 0.6200 (   729 PWs)   bands (ev):

    -2.8905  -0.4753   2.1549   4.2778

          k = 0.5020 0.0000 0.4960 (   735 PWs)   bands (ev):

    -3.7971   0.7162   2.3945   4.8494

          k = 0.0000 0.7530 0.0000 (   733 PWs)   bands (ev):

    -3.4235   0.4779   3.5381   3.5499

          k = 0.8785-0.1255 0.8681 (   737 PWs)   bands (ev):

    -2.5048  -0.6293   2.6869   3.4655

          k = 0.7530 0.0000 0.7440 (   732 PWs)   bands (ev):

    -2.0580  -1.0398   1.8042   3.7275

          k = 0.0000-1.0040 0.0000 (   740 PWs)   bands (ev):

    -1.6332  -1.6332   3.2927   3.2927

          k = 0.0000 0.0000 0.2480 (   737 PWs)   bands (ev):

    -5.6035   4.8477   5.4395   5.4395

          k =-0.2510 0.2510 0.0000 (   741 PWs)   bands (ev):

    -5.3234   3.5207   4.5115   5.9855

          k =-0.3765 0.3765-0.1240 (   740 PWs)   bands (ev):

    -4.5961   1.5325   3.8179   5.5070

          k = 0.5020-0.5020 0.7440 (   737 PWs)   bands (ev):

    -3.6488  -0.2569   3.6613   5.0093

          k = 0.3765-0.3765 0.6200 (   733 PWs)   bands (ev):

    -3.4080  -0.6231   3.8469   4.7022

          k = 0.2510-0.2510 0.4960 (   735 PWs)   bands (ev):

    -4.2996   0.8810   4.3109   4.6667

          k = 0.1255-0.1255 0.3720 (   737 PWs)   bands (ev):

    -5.1296   2.9683   4.9273   4.9417

          k =-0.2510 0.5020 0.0000 (   737 PWs)   bands (ev):

    -4.5142   1.9030   3.4003   4.8107

          k = 0.6275-0.3765 0.8681 (   737 PWs)   bands (ev):

    -3.6036   0.3090   2.7897   4.2919

          k = 0.5020-0.2510 0.7440 (   731 PWs)   bands (ev):

    -2.9423  -0.6532   2.6849   4.0283

          k = 0.3765-0.1255 0.6200 (   733 PWs)   bands (ev):

    -3.6288   0.3306   2.8443   4.2340

          k = 0.2510 0.0000 0.4960 (   735 PWs)   bands (ev):

    -4.5353   1.9016   3.4796   4.7531

          k = 0.0000 0.5020 0.2480 (   737 PWs)   bands (ev):

    -4.5188   1.9254   3.4486   4.7625

          k = 0.7530-0.2510 0.9921 (   734 PWs)   bands (ev):

    -3.2196   0.2345   2.7394   3.4012

          k = 0.6275-0.1255 0.8681 (   726 PWs)   bands (ev):

    -2.3280  -0.7585   2.0495   3.1669

          k = 0.5020 0.0000 0.7440 (   729 PWs)   bands (ev):

    -2.7073  -0.3840   1.9051   3.5383

          k =-0.8785-0.3765-0.6200 (   733 PWs)   bands (ev):

    -3.6096   0.3363   2.8480   4.2465

          k =-1.0040-0.2510-0.7440 (   732 PWs)   bands (ev):

    -3.2218   0.2500   2.7748   3.3896

          k =-0.2510-1.0040 0.0000 (   738 PWs)   bands (ev):

    -1.5565  -1.5565   2.6954   2.6954

          k =-0.7530-0.2510-0.4960 (   732 PWs)   bands (ev):

    -2.9349  -0.6408   2.7310   4.0058

          k =-0.8785-0.1255-0.6200 (   731 PWs)   bands (ev):

    -2.3234  -0.7418   2.0627   3.1872

          k = 0.0000-1.0040 0.2480 (   730 PWs)   bands (ev):

    -1.5528  -1.5528   2.7131   2.7131

          k =-0.7530 0.0000-0.4960 (   732 PWs)   bands (ev):

    -2.6873  -0.3722   1.8922   3.5787

          k = 0.0000 0.0000 0.4960 (   729 PWs)   bands (ev):

    -4.7907   2.6454   4.3494   4.3494

          k = 0.5020-0.5020 0.9921 (   736 PWs)   bands (ev):

    -3.7814   0.6733   2.3274   4.9468

          k = 0.3765-0.3765 0.8681 (   730 PWs)   bands (ev):

    -2.8857  -0.5140   2.0898   4.3750

          k = 0.2510-0.2510 0.7440 (   732 PWs)   bands (ev):

    -3.1235  -0.2280   2.5749   4.0446

          k = 0.1255-0.1255 0.6200 (   734 PWs)   bands (ev):

    -4.0729   1.2256   3.5016   4.0334

          k = 0.5020-0.2510 0.9921 (   732 PWs)   bands (ev):

    -2.6855  -0.4201   1.8468   3.6218

          k = 0.3765-0.1255 0.8681 (   728 PWs)   bands (ev):

    -2.3558  -0.7798   2.0518   3.2230

          k = 0.2510 0.0000 0.7440 (   736 PWs)   bands (ev):

    -3.2615   0.1955   2.8239   3.4108

          k =-0.5020-1.0040 0.0000 (   730 PWs)   bands (ev):

    -1.4896  -1.4896   2.2629   2.2629

          k = 0.0000-1.0040 0.4960 (   732 PWs)   bands (ev):

    -1.4639  -1.4639   2.2684   2.2684

          k = 0.0000 0.0000 0.7440 (   725 PWs)   bands (ev):

    -3.4704   0.3886   3.6313   3.6313

          k = 0.2510-0.2510 0.9921 (   726 PWs)   bands (ev):

    -2.0790  -1.1053   1.7971   3.8237

          k = 0.1255-0.1255 0.8681 (   736 PWs)   bands (ev):

    -2.5601  -0.6989   2.7381   3.5579

          k =-0.7530-1.0040 0.0000 (   734 PWs)   bands (ev):

    -1.6122  -1.6122   2.7614   2.7614

          k = 0.0000 0.0000-0.9921 (   740 PWs)   bands (ev):

    -1.7062  -1.7062   3.3855   3.3855

     highest occupied level (ev):     6.2623

!    total energy              =     -19.26013084 Ry
     estimated scf accuracy    <          2.8E-09 Ry

     The total energy is the sum of the following terms:
     one-electron contribution =       5.20734351 Ry
     hartree contribution      =       1.09650603 Ry
     xc contribution           =      -8.64699646 Ry
     ewald contribution        =     -16.91698391 Ry

     convergence has been achieved in   6 iterations

     Forces acting on atoms (cartesian axes, Ry/au):

     atom    1 type  1   force =     0.00000000    0.00000000    0.00000000
     atom    2 type  1   force =     0.00000000    0.00000000    0.00000000

     Total force =     0.000000     Total SCF correction =     0.000000


     Computing stress (Cartesian axis) and pressure

          total   stress  (Ry/bohr**3)                   (kbar)     P=        4.42
   0.00005690  -0.00000000   0.00000000            8.37       -0.00        0.00
  -0.00000000   0.00005690  -0.00000000           -0.00        8.37       -0.00
   0.00000000  -0.00000000  -0.00002358            0.00       -0.00       -3.47


     BFGS Geometry Optimization
     Energy error            =      0.0E+00 Ry
     Gradient error          =      0.0E+00 Ry/Bohr

     bfgs converged in   1 scf cycles and   0 bfgs steps
     (criteria: energy <  1.0E-04 Ry, force <  1.0E-03 Ry/Bohr)

     End of BFGS Geometry Optimization

     Final energy             =     -19.2601308401 Ry
Begin final coordinates

ATOMIC_POSITIONS (crystal)
Si            0.0000000000        0.0000000000        0.0000000000
Si            0.2500000000        0.2500000000        0.2500000000
End final coordinates



     Writing all to output data dir ./Si_elastic_isotropic.save/
 
     init_run     :      1.65s CPU      1.73s WALL (       1 calls)
     electrons    :     12.68s CPU     14.34s WALL (       1 calls)
     forces       :      0.34s CPU      0.35s WALL (       1 calls)
     stress       :      2.09s CPU      2.11s WALL (       1 calls)

     Called by init_run:
     wfcinit      :      0.64s CPU      0.67s WALL (       1 calls)
     potinit      :      0.03s CPU      0.04s WALL (       1 calls)
     hinit0       :      0.82s CPU      0.84s WALL (       1 calls)

     Called by electrons:
     c_bands      :      9.47s CPU     10.88s WALL (       7 calls)
     sum_band     :      2.33s CPU      2.47s WALL (       7 calls)
     v_of_rho     :      0.11s CPU      0.11s WALL (       7 calls)
     newd         :      0.86s CPU      0.95s WALL (       7 calls)
     mix_rho      :      0.03s CPU      0.03s WALL (       7 calls)

     Called by c_bands:
     init_us_2    :      0.75s CPU      0.82s WALL (    1003 calls)
     init_us_2:cp :      0.72s CPU      0.80s WALL (    1003 calls)
     ccgdiagg     :      7.53s CPU      8.21s WALL (     413 calls)
     wfcrot       :      1.99s CPU      2.09s WALL (     354 calls)

     Called by *cgdiagg:
     h_psi        :      7.80s CPU      8.38s WALL (    5313 calls)
     s_psi        :      0.55s CPU      0.62s WALL (   10272 calls)

     Called by h_psi:
     h_psi:calbec :      0.62s CPU      0.67s WALL (    5313 calls)
     vloc_psi     :      6.52s CPU      7.00s WALL (    5313 calls)
     add_vuspsi   :      0.38s CPU      0.42s WALL (    5313 calls)
     hs_1psi      :      6.54s CPU      7.10s WALL (    4959 calls)
     s_1psi       :      0.68s CPU      0.75s WALL (    4959 calls)

     General routines
     calbec       :      0.89s CPU      1.00s WALL (   10980 calls)
     fft          :      0.06s CPU      0.07s WALL (      49 calls)
     ffts         :      0.01s CPU      0.01s WALL (      14 calls)
     fftw         :      5.75s CPU      6.15s WALL (   14874 calls)
     interpolate  :      0.02s CPU      0.02s WALL (       7 calls)
 
     Parallel routines
 
     PWSCF        :     17.31s CPU     19.62s WALL

 
   This run was terminated on:   0:36:10  15Mar2022            

=------------------------------------------------------------------------------=
   JOB DONE.
=------------------------------------------------------------------------------=
