
     Program PWSCF v.7.0 starts on 13Mar2022 at 10:30:16 

     This program is part of the open-source Quantum ESPRESSO suite
     for quantum simulation of materials; please cite
         "P. Giannozzi et al., J. Phys.:Condens. Matter 21 395502 (2009);
         "P. Giannozzi et al., J. Phys.:Condens. Matter 29 465901 (2017);
         "P. Giannozzi et al., J. Chem. Phys. 152 154105 (2020);
          URL http://www.quantum-espresso.org", 
     in publications or presentations arising from this work. More details at
     http://www.quantum-espresso.org/quote

     Parallel version (MPI), running on     1 processors

     MPI processes distributed on     1 nodes
     88677 MiB available memory on the printing compute node when the environment starts
 
     Waiting for input...
     Reading input from standard input
Warning: card &CELL ignored
Warning: card  CELL_DYNAMICS = 'BFGS', ignored
Warning: card  PRESS=0.1D0, ignored
Warning: card / ignored

     Current dimensions of program PWSCF are:
     Max number of different atomic species (ntypx) = 10
     Max number of k-points (npk) =  40000
     Max angular momentum in pseudopotentials (lmaxx) =  4
     Message from routine setup:
     using ibrav=0 with symmetry is DISCOURAGED, use correct ibrav instead

     Subspace diagonalization in iterative solution of the eigenvalue problem:
     a serial algorithm will be used

 
     G-vector sticks info
     --------------------
     sticks:   dense  smooth     PW     G-vecs:    dense   smooth      PW
     Sum        2185     733    241                66925    12887    2317
 
     Using Slab Decomposition
 


     bravais-lattice index     =            0
     lattice parameter (alat)  =      10.2600  a.u.
     unit-cell volume          =     270.0081 (a.u.)^3
     number of atoms/cell      =            2
     number of atomic types    =            1
     number of electrons       =         8.00
     number of Kohn-Sham states=            4
     kinetic-energy cutoff     =      50.0000  Ry
     charge density cutoff     =     600.0000  Ry
     scf convergence threshold =      1.0E-08
     mixing beta               =       0.7000
     number of iterations used =            8  plain     mixing
     Exchange-correlation= SLA  PZ   NOGX NOGC
                           (   1   1   0   0   0   0   0)

     celldm(1)=  10.260000  celldm(2)=   0.000000  celldm(3)=   0.000000
     celldm(4)=   0.000000  celldm(5)=   0.000000  celldm(6)=   0.000000

     crystal axes: (cart. coord. in units of alat)
               a(1) = (  -0.501000   0.000000   0.501000 )  
               a(2) = (   0.000000   0.501000   0.501000 )  
               a(3) = (  -0.498000   0.498000   0.000000 )  

     reciprocal axes: (cart. coord. in units 2 pi/alat)
               b(1) = ( -0.998004 -0.998004  0.998004 )  
               b(2) = (  0.998004  0.998004  0.998004 )  
               b(3) = ( -1.004016  1.004016 -1.004016 )  


     PseudoPot. # 1 for Si read from file:
     ./Si_LDA.UPF
     MD5 check sum: b5ade7b37ee992b02096e360e546dc2d
     Pseudo is Ultrasoft + core correction, Zval =  4.0
     Generated by new atomic code, or converted to UPF format
     Using radial grid of  899 points,  6 beta functions with: 
                l(1) =   0
                l(2) =   0
                l(3) =   1
                l(4) =   1
                l(5) =   2
                l(6) =   2
     Q(r) pseudized with  8 coefficients,  rinner =    0.900   0.900   0.900
                                                       0.900   0.900

     atomic species   valence    mass     pseudopotential
        Si             4.00    28.08550     Si( 1.00)

      4 Sym. Ops., with inversion, found ( 2 have fractional translation)



   Cartesian axes

     site n.     atom                  positions (alat units)
         1           Si  tau(   1) = (   0.0000000   0.0000000   0.0000000  )
         2           Si  tau(   2) = (  -0.2497500   0.2497500   0.2505000  )

     number of k points=   282

     Number of k-points >= 100: set verbosity='high' to print them.

     Dense  grid:    66925 G-vectors     FFT dimensions: (  60,  60,  60)

     Smooth grid:    12887 G-vectors     FFT dimensions: (  36,  36,  36)

     Estimated max dynamical RAM per process >     278.20 MB

     Initial potential from superposition of free atoms

     starting charge       7.9988, renormalised to       8.0000
     Starting wfcs are    8 randomized atomic wfcs

     total cpu time spent up to now is       10.3 secs

     Self-consistent Calculation

     iteration #  1     ecut=    50.00 Ry     beta= 0.70
     CG style diagonalization
     ethr =  1.00E-02,  avg # of iterations =  3.0

     Threshold (ethr) on eigenvalues was too large:
     Diagonalizing with lowered threshold

     CG style diagonalization
     ethr =  7.15E-04,  avg # of iterations =  2.0

     total cpu time spent up to now is       38.3 secs

     total energy              =     -19.25692507 Ry
     estimated scf accuracy    <       0.05759228 Ry

     iteration #  2     ecut=    50.00 Ry     beta= 0.70
     CG style diagonalization
     ethr =  7.20E-04,  avg # of iterations =  3.0

     total cpu time spent up to now is       53.7 secs

     total energy              =     -19.25970675 Ry
     estimated scf accuracy    <       0.00197431 Ry

     iteration #  3     ecut=    50.00 Ry     beta= 0.70
     CG style diagonalization
     ethr =  2.47E-05,  avg # of iterations =  4.1

     total cpu time spent up to now is       73.7 secs

     total energy              =     -19.26027472 Ry
     estimated scf accuracy    <       0.00006610 Ry

     iteration #  4     ecut=    50.00 Ry     beta= 0.70
     CG style diagonalization
     ethr =  8.26E-07,  avg # of iterations =  4.3

     total cpu time spent up to now is       94.4 secs

     total energy              =     -19.26030962 Ry
     estimated scf accuracy    <       0.00001373 Ry

     iteration #  5     ecut=    50.00 Ry     beta= 0.70
     CG style diagonalization
     ethr =  1.72E-07,  avg # of iterations =  3.9

     total cpu time spent up to now is      113.7 secs

     total energy              =     -19.26031237 Ry
     estimated scf accuracy    <       0.00000004 Ry

     iteration #  6     ecut=    50.00 Ry     beta= 0.70
     CG style diagonalization
     ethr =  4.53E-10,  avg # of iterations =  6.0

     total cpu time spent up to now is      141.3 secs

     End of self-consistent calculation

     Number of k-points >= 100: set verbosity='high' to print the bands.

     highest occupied level (ev):     6.0301

!    total energy              =     -19.26031255 Ry
     estimated scf accuracy    <          5.4E-09 Ry

     The total energy is the sum of the following terms:
     one-electron contribution =       5.04791613 Ry
     hartree contribution      =       1.11369991 Ry
     xc contribution           =      -8.62107871 Ry
     ewald contribution        =     -16.80084989 Ry

     convergence has been achieved in   6 iterations

     Forces acting on atoms (cartesian axes, Ry/au):

     atom    1 type  1   force =    -0.00111143    0.00111143   -0.00218465
     atom    2 type  1   force =     0.00111143   -0.00111143    0.00218465

     Total force =     0.003806     Total SCF correction =     0.000001


     Computing stress (Cartesian axis) and pressure

          total   stress  (Ry/bohr**3)                   (kbar)     P=      -14.98
  -0.00009524  -0.00004126   0.00002081          -14.01       -6.07        3.06
  -0.00004126  -0.00009524  -0.00002081           -6.07      -14.01       -3.06
   0.00002081  -0.00002081  -0.00011498            3.06       -3.06      -16.91


     Writing all to output data dir ./Si_elastic_tetra.save/
 
     init_run     :      9.31s CPU      9.66s WALL (       1 calls)
     electrons    :    120.63s CPU    131.09s WALL (       1 calls)
     forces       :      2.16s CPU      2.26s WALL (       1 calls)
     stress       :     12.43s CPU     12.60s WALL (       1 calls)

     Called by init_run:
     wfcinit      :      7.02s CPU      7.28s WALL (       1 calls)
     potinit      :      0.18s CPU      0.20s WALL (       1 calls)
     hinit0       :      1.50s CPU      1.53s WALL (       1 calls)

     Called by electrons:
     c_bands      :    100.77s CPU    110.13s WALL (       7 calls)
     sum_band     :     16.93s CPU     17.68s WALL (       7 calls)
     v_of_rho     :      0.37s CPU      0.42s WALL (       7 calls)
     newd         :      2.88s CPU      3.16s WALL (       7 calls)
     mix_rho      :      0.08s CPU      0.08s WALL (       7 calls)

     Called by c_bands:
     init_us_2    :      7.92s CPU      8.41s WALL (    4794 calls)
     init_us_2:cp :      7.79s CPU      8.32s WALL (    4794 calls)
     ccgdiagg     :     81.18s CPU     86.59s WALL (    1974 calls)
     wfcrot       :     21.38s CPU     22.21s WALL (    1692 calls)

     Called by *cgdiagg:
     h_psi        :     84.47s CPU     88.62s WALL (   25857 calls)
     s_psi        :      7.78s CPU      8.97s WALL (   50022 calls)

     Called by h_psi:
     h_psi:calbec :      5.53s CPU      5.81s WALL (   25857 calls)
     vloc_psi     :     72.64s CPU     76.04s WALL (   25857 calls)
     add_vuspsi   :      4.64s CPU      5.16s WALL (   25857 calls)
     hs_1psi      :     70.08s CPU     74.04s WALL (   24165 calls)
     s_1psi       :      8.42s CPU      9.42s WALL (   24165 calls)

     General routines
     calbec       :      9.37s CPU     10.54s WALL (   53406 calls)
     fft          :      0.22s CPU      0.22s WALL (      49 calls)
     ffts         :      0.01s CPU      0.02s WALL (      14 calls)
     fftw         :     68.53s CPU     71.59s WALL (   72018 calls)
     interpolate  :      0.05s CPU      0.07s WALL (       7 calls)
 
     Parallel routines
 
     PWSCF        :   2m25.36s CPU   2m38.28s WALL

 
   This run was terminated on:  10:32:54  13Mar2022            

=------------------------------------------------------------------------------=
   JOB DONE.
=------------------------------------------------------------------------------=
