
     Program PWSCF v.7.0 starts on 15Mar2022 at  0:35:28 

     This program is part of the open-source Quantum ESPRESSO suite
     for quantum simulation of materials; please cite
         "P. Giannozzi et al., J. Phys.:Condens. Matter 21 395502 (2009);
         "P. Giannozzi et al., J. Phys.:Condens. Matter 29 465901 (2017);
         "P. Giannozzi et al., J. Chem. Phys. 152 154105 (2020);
          URL http://www.quantum-espresso.org", 
     in publications or presentations arising from this work. More details at
     http://www.quantum-espresso.org/quote

     Parallel version (MPI), running on     1 processors

     MPI processes distributed on     1 nodes
     88036 MiB available memory on the printing compute node when the environment starts
 
     Waiting for input...
     Reading input from standard input
Warning: card &CELL ignored
Warning: card  CELL_DYNAMICS = 'BFGS', ignored
Warning: card  PRESS=0.1D0, ignored
Warning: card / ignored

     Current dimensions of program PWSCF are:
     Max number of different atomic species (ntypx) = 10
     Max number of k-points (npk) =  40000
     Max angular momentum in pseudopotentials (lmaxx) =  4
     Message from routine setup:
     using ibrav=0 with symmetry is DISCOURAGED, use correct ibrav instead

     Subspace diagonalization in iterative solution of the eigenvalue problem:
     a serial algorithm will be used

 
     G-vector sticks info
     --------------------
     sticks:   dense  smooth     PW     G-vecs:    dense   smooth      PW
     Sum        1069     433    143                23229     5889    1091
 
     Using Slab Decomposition
 


     bravais-lattice index     =            0
     lattice parameter (alat)  =      10.1900  a.u.
     unit-cell volume          =     264.4940 (a.u.)^3
     number of atoms/cell      =            2
     number of atomic types    =            1
     number of electrons       =         8.00
     number of Kohn-Sham states=            4
     kinetic-energy cutoff     =      30.0000  Ry
     charge density cutoff     =     300.0000  Ry
     scf convergence threshold =      1.0E-08
     mixing beta               =       0.7000
     number of iterations used =            8  plain     mixing
     energy convergence thresh.=      1.0E-04
     force convergence thresh. =      1.0E-03
     Exchange-correlation= SLA  PZ   NOGX NOGC
                           (   1   1   0   0   0   0   0)
     nstep                     =           50


     celldm(1)=  10.190000  celldm(2)=   0.000000  celldm(3)=   0.000000
     celldm(4)=   0.000000  celldm(5)=   0.000000  celldm(6)=   0.000000

     crystal axes: (cart. coord. in units of alat)
               a(1) = (  -0.497000   0.000000   0.506000 )  
               a(2) = (   0.000000   0.497000   0.506000 )  
               a(3) = (  -0.497000   0.497000   0.000000 )  

     reciprocal axes: (cart. coord. in units 2 pi/alat)
               b(1) = ( -1.006036 -1.006036  0.988142 )  
               b(2) = (  1.006036  1.006036  0.988142 )  
               b(3) = ( -1.006036  1.006036 -0.988142 )  


     PseudoPot. # 1 for Si read from file:
     ./Si_LDA.UPF
     MD5 check sum: b5ade7b37ee992b02096e360e546dc2d
     Pseudo is Ultrasoft + core correction, Zval =  4.0
     Generated by new atomic code, or converted to UPF format
     Using radial grid of  899 points,  6 beta functions with: 
                l(1) =   0
                l(2) =   0
                l(3) =   1
                l(4) =   1
                l(5) =   2
                l(6) =   2
     Q(r) pseudized with  8 coefficients,  rinner =    0.900   0.900   0.900
                                                       0.900   0.900

     atomic species   valence    mass     pseudopotential
        Si             4.00    28.08550     Si( 1.00)

     16 Sym. Ops., with inversion, found ( 8 have fractional translation)



   Cartesian axes

     site n.     atom                  positions (alat units)
         1           Si  tau(   1) = (   0.0000000   0.0000000   0.0000000  )
         2           Si  tau(   2) = (  -0.2485000   0.2485000   0.2530000  )

     number of k points=    59
                       cart. coord. in units 2pi/alat
        k(    1) = (   0.0000000   0.0000000   0.0000000), wk =   0.0039062
        k(    2) = (  -0.1257545   0.1257545  -0.1235178), wk =   0.0312500
        k(    3) = (  -0.2515091   0.2515091  -0.2470356), wk =   0.0312500
        k(    4) = (  -0.3772636   0.3772636  -0.3705534), wk =   0.0312500
        k(    5) = (   0.5030181  -0.5030181   0.4940711), wk =   0.0156250
        k(    6) = (   0.0000000   0.2515091   0.0000000), wk =   0.0156250
        k(    7) = (  -0.1257545   0.3772636  -0.1235178), wk =   0.0625000
        k(    8) = (  -0.2515091   0.5030181  -0.2470356), wk =   0.0625000
        k(    9) = (   0.6287726  -0.3772636   0.6175889), wk =   0.0625000
        k(   10) = (   0.5030181  -0.2515091   0.4940711), wk =   0.0625000
        k(   11) = (   0.3772636  -0.1257545   0.3705534), wk =   0.0625000
        k(   12) = (   0.2515091   0.0000000   0.2470356), wk =   0.0312500
        k(   13) = (   0.0000000   0.5030181   0.0000000), wk =   0.0156250
        k(   14) = (  -0.1257545   0.6287726  -0.1235178), wk =   0.0625000
        k(   15) = (   0.7545272  -0.2515091   0.7411067), wk =   0.0625000
        k(   16) = (   0.6287726  -0.1257545   0.6175889), wk =   0.0625000
        k(   17) = (   0.5030181   0.0000000   0.4940711), wk =   0.0312500
        k(   18) = (   0.0000000   0.7545272   0.0000000), wk =   0.0156250
        k(   19) = (   0.8802817  -0.1257545   0.8646245), wk =   0.0625000
        k(   20) = (   0.7545272   0.0000000   0.7411067), wk =   0.0312500
        k(   21) = (   0.0000000  -1.0060362   0.0000000), wk =   0.0078125
        k(   22) = (   0.0000000   0.0000000   0.2470356), wk =   0.0078125
        k(   23) = (  -0.2515091   0.2515091   0.0000000), wk =   0.0156250
        k(   24) = (  -0.3772636   0.3772636  -0.1235178), wk =   0.0312500
        k(   25) = (   0.5030181  -0.5030181   0.7411067), wk =   0.0312500
        k(   26) = (   0.3772636  -0.3772636   0.6175889), wk =   0.0312500
        k(   27) = (   0.2515091  -0.2515091   0.4940711), wk =   0.0312500
        k(   28) = (   0.1257545  -0.1257545   0.3705534), wk =   0.0312500
        k(   29) = (  -0.2515091   0.5030181   0.0000000), wk =   0.0312500
        k(   30) = (   0.6287726  -0.3772636   0.8646245), wk =   0.0625000
        k(   31) = (   0.5030181  -0.2515091   0.7411067), wk =   0.0625000
        k(   32) = (   0.3772636  -0.1257545   0.6175889), wk =   0.0625000
        k(   33) = (   0.2515091   0.0000000   0.4940711), wk =   0.0312500
        k(   34) = (   0.0000000   0.5030181   0.2470356), wk =   0.0312500
        k(   35) = (   0.7545272  -0.2515091   0.9881423), wk =   0.0312500
        k(   36) = (   0.6287726  -0.1257545   0.8646245), wk =   0.0625000
        k(   37) = (   0.5030181   0.0000000   0.7411067), wk =   0.0312500
        k(   38) = (  -0.8802817  -0.3772636  -0.6175889), wk =   0.0625000
        k(   39) = (  -1.0060362  -0.2515091  -0.7411067), wk =   0.0312500
        k(   40) = (  -0.2515091  -1.0060362  -0.0000000), wk =   0.0156250
        k(   41) = (  -0.7545272  -0.2515091  -0.4940711), wk =   0.0312500
        k(   42) = (  -0.8802817  -0.1257545  -0.6175889), wk =   0.0625000
        k(   43) = (   0.0000000  -1.0060362   0.2470356), wk =   0.0156250
        k(   44) = (  -0.7545272  -0.0000000  -0.4940711), wk =   0.0312500
        k(   45) = (   0.0000000   0.0000000   0.4940711), wk =   0.0078125
        k(   46) = (   0.5030181  -0.5030181   0.9881423), wk =   0.0156250
        k(   47) = (   0.3772636  -0.3772636   0.8646245), wk =   0.0312500
        k(   48) = (   0.2515091  -0.2515091   0.7411067), wk =   0.0312500
        k(   49) = (   0.1257545  -0.1257545   0.6175889), wk =   0.0312500
        k(   50) = (   0.5030181  -0.2515091   0.9881423), wk =   0.0312500
        k(   51) = (   0.3772636  -0.1257545   0.8646245), wk =   0.0625000
        k(   52) = (   0.2515091   0.0000000   0.7411067), wk =   0.0312500
        k(   53) = (  -0.5030181  -1.0060362   0.0000000), wk =   0.0156250
        k(   54) = (   0.0000000  -1.0060362   0.4940711), wk =   0.0078125
        k(   55) = (   0.0000000   0.0000000   0.7411067), wk =   0.0078125
        k(   56) = (   0.2515091  -0.2515091   0.9881423), wk =   0.0156250
        k(   57) = (   0.1257545  -0.1257545   0.8646245), wk =   0.0312500
        k(   58) = (  -0.7545272  -1.0060362   0.0000000), wk =   0.0156250
        k(   59) = (   0.0000000   0.0000000  -0.9881423), wk =   0.0039062

     Dense  grid:    23229 G-vectors     FFT dimensions: (  40,  40,  40)

     Smooth grid:     5889 G-vectors     FFT dimensions: (  32,  32,  32)

     Estimated max dynamical RAM per process >      89.65 MB

     Initial potential from superposition of free atoms

     starting charge       7.9988, renormalised to       8.0000
     Starting wfcs are    8 randomized atomic wfcs

     total cpu time spent up to now is        4.1 secs

     Self-consistent Calculation

     iteration #  1     ecut=    30.00 Ry     beta= 0.70
     CG style diagonalization
     ethr =  1.00E-02,  avg # of iterations =  3.0

     Threshold (ethr) on eigenvalues was too large:
     Diagonalizing with lowered threshold

     CG style diagonalization
     ethr =  7.38E-04,  avg # of iterations =  2.0

     total cpu time spent up to now is        7.4 secs

     total energy              =     -19.25632851 Ry
     estimated scf accuracy    <       0.05989101 Ry

     iteration #  2     ecut=    30.00 Ry     beta= 0.70
     CG style diagonalization
     ethr =  7.49E-04,  avg # of iterations =  3.0

     total cpu time spent up to now is        9.1 secs

     total energy              =     -19.25939538 Ry
     estimated scf accuracy    <       0.00196617 Ry

     iteration #  3     ecut=    30.00 Ry     beta= 0.70
     CG style diagonalization
     ethr =  2.46E-05,  avg # of iterations =  4.1

     total cpu time spent up to now is       11.3 secs

     total energy              =     -19.25998442 Ry
     estimated scf accuracy    <       0.00007135 Ry

     iteration #  4     ecut=    30.00 Ry     beta= 0.70
     CG style diagonalization
     ethr =  8.92E-07,  avg # of iterations =  4.3

     total cpu time spent up to now is       13.5 secs

     total energy              =     -19.26002076 Ry
     estimated scf accuracy    <       0.00001501 Ry

     iteration #  5     ecut=    30.00 Ry     beta= 0.70
     CG style diagonalization
     ethr =  1.88E-07,  avg # of iterations =  4.0

     total cpu time spent up to now is       15.6 secs

     total energy              =     -19.26002369 Ry
     estimated scf accuracy    <       0.00000005 Ry

     iteration #  6     ecut=    30.00 Ry     beta= 0.70
     CG style diagonalization
     ethr =  6.79E-10,  avg # of iterations =  5.7

     total cpu time spent up to now is       18.4 secs

     End of self-consistent calculation

          k = 0.0000 0.0000 0.0000 (   733 PWs)   bands (ev):

    -5.8771   6.1481   6.2779   6.2779

          k =-0.1258 0.1258-0.1235 (   730 PWs)   bands (ev):

    -5.6692   4.6111   5.8887   5.9900

          k =-0.2515 0.2515-0.2470 (   737 PWs)   bands (ev):

    -5.0618   2.2478   5.3933   5.5290

          k =-0.3773 0.3773-0.3706 (   742 PWs)   bands (ev):

    -4.1466   0.1904   5.0491   5.2139

          k = 0.5030-0.5030 0.4941 (   734 PWs)   bands (ev):

    -3.4855  -0.8608   4.9311   5.1072

          k = 0.0000 0.2515 0.0000 (   727 PWs)   bands (ev):

    -5.5962   4.9403   5.3397   5.4194

          k =-0.1258 0.3773-0.1235 (   730 PWs)   bands (ev):

    -5.1159   2.9785   4.8425   4.9930

          k =-0.2515 0.5030-0.2470 (   737 PWs)   bands (ev):

    -4.2813   0.8698   4.3854   4.5895

          k = 0.6288-0.3773 0.6176 (   738 PWs)   bands (ev):

    -3.3956  -0.6277   3.9455   4.6039

          k = 0.5030-0.2515 0.4941 (   738 PWs)   bands (ev):

    -3.6588  -0.2342   3.7569   4.9039

          k = 0.3773-0.1258 0.3706 (   736 PWs)   bands (ev):

    -4.6070   1.5586   3.8984   5.4079

          k = 0.2515 0.0000 0.2470 (   733 PWs)   bands (ev):

    -5.3293   3.5267   4.5862   5.9068

          k = 0.0000 0.5030 0.0000 (   727 PWs)   bands (ev):

    -4.7640   2.7478   4.2461   4.2870

          k =-0.1258 0.6288-0.1235 (   736 PWs)   bands (ev):

    -4.0352   1.2802   3.4881   3.9402

          k = 0.7545-0.2515 0.7411 (   732 PWs)   bands (ev):

    -3.0855  -0.2131   2.6303   3.9399

          k = 0.6288-0.1258 0.6176 (   730 PWs)   bands (ev):

    -2.8905  -0.4680   2.1665   4.2623

          k = 0.5030 0.0000 0.4941 (   731 PWs)   bands (ev):

    -3.7989   0.7241   2.4066   4.8335

          k = 0.0000 0.7545 0.0000 (   729 PWs)   bands (ev):

    -3.4149   0.4937   3.5220   3.5397

          k = 0.8803-0.1258 0.8646 (   738 PWs)   bands (ev):

    -2.4948  -0.6169   2.6797   3.4515

          k = 0.7545 0.0000 0.7411 (   733 PWs)   bands (ev):

    -2.0537  -1.0281   1.8065   3.7124

          k = 0.0000-1.0060 0.0000 (   740 PWs)   bands (ev):

    -1.6202  -1.6202   3.2786   3.2786

          k = 0.0000 0.0000 0.2470 (   753 PWs)   bands (ev):

    -5.6049   4.8214   5.4584   5.4584

          k =-0.2515 0.2515 0.0000 (   730 PWs)   bands (ev):

    -5.3210   3.5200   4.4917   6.0095

          k =-0.3773 0.3773-0.1235 (   740 PWs)   bands (ev):

    -4.5922   1.5263   3.7961   5.5368

          k = 0.5030-0.5030 0.7411 (   735 PWs)   bands (ev):

    -3.6450  -0.2623   3.6344   5.0414

          k = 0.3773-0.3773 0.6176 (   737 PWs)   bands (ev):

    -3.4104  -0.6208   3.8182   4.7331

          k = 0.2515-0.2515 0.4941 (   737 PWs)   bands (ev):

    -4.3039   0.8850   4.2866   4.6941

          k = 0.1258-0.1258 0.3706 (   739 PWs)   bands (ev):

    -5.1328   2.9653   4.9317   4.9502

          k =-0.2515 0.5030 0.0000 (   733 PWs)   bands (ev):

    -4.5093   1.9001   3.3803   4.8298

          k = 0.6288-0.3773 0.8646 (   736 PWs)   bands (ev):

    -3.5976   0.3017   2.7713   4.3112

          k = 0.5030-0.2515 0.7411 (   732 PWs)   bands (ev):

    -2.9427  -0.6545   2.6762   4.0353

          k = 0.3773-0.1258 0.6176 (   737 PWs)   bands (ev):

    -3.6354   0.3335   2.8526   4.2248

          k = 0.2515 0.0000 0.4941 (   735 PWs)   bands (ev):

    -4.5408   1.8971   3.4991   4.7434

          k = 0.0000 0.5030 0.2470 (   740 PWs)   bands (ev):

    -4.5162   1.9338   3.4527   4.7570

          k = 0.7545-0.2515 0.9881 (   736 PWs)   bands (ev):

    -3.2115   0.2388   2.7207   3.4033

          k = 0.6288-0.1258 0.8646 (   729 PWs)   bands (ev):

    -2.3235  -0.7571   2.0476   3.1563

          k = 0.5030 0.0000 0.7411 (   727 PWs)   bands (ev):

    -2.7134  -0.3796   1.9180   3.5193

          k =-0.8803-0.3773-0.6176 (   732 PWs)   bands (ev):

    -3.6066   0.3426   2.8591   4.2419

          k =-1.0060-0.2515-0.7411 (   736 PWs)   bands (ev):

    -3.2147   0.2625   2.7736   3.3852

          k =-0.2515-1.0060-0.0000 (   738 PWs)   bands (ev):

    -1.5472  -1.5472   2.6829   2.6829

          k =-0.7545-0.2515-0.4941 (   732 PWs)   bands (ev):

    -2.9316  -0.6359   2.7468   3.9995

          k =-0.8803-0.1258-0.6176 (   733 PWs)   bands (ev):

    -2.3164  -0.7318   2.0676   3.1856

          k = 0.0000-1.0060 0.2470 (   730 PWs)   bands (ev):

    -1.5414  -1.5414   2.7091   2.7091

          k =-0.7545-0.0000-0.4941 (   734 PWs)   bands (ev):

    -2.6834  -0.3613   1.8985   3.5790

          k = 0.0000 0.0000 0.4941 (   729 PWs)   bands (ev):

    -4.7976   2.6164   4.3748   4.3748

          k = 0.5030-0.5030 0.9881 (   740 PWs)   bands (ev):

    -3.7755   0.6600   2.3062   4.9803

          k = 0.3773-0.3773 0.8646 (   728 PWs)   bands (ev):

    -2.8834  -0.5260   2.0692   4.4086

          k = 0.2515-0.2515 0.7411 (   728 PWs)   bands (ev):

    -3.1333  -0.2319   2.5607   4.0762

          k = 0.1258-0.1258 0.6176 (   734 PWs)   bands (ev):

    -4.0827   1.2097   3.5075   4.0621

          k = 0.5030-0.2515 0.9881 (   730 PWs)   bands (ev):

    -2.6809  -0.4334   1.8308   3.6443

          k = 0.3773-0.1258 0.8646 (   726 PWs)   bands (ev):

    -2.3651  -0.7893   2.0513   3.2402

          k = 0.2515 0.0000 0.7411 (   738 PWs)   bands (ev):

    -3.2742   0.1798   2.8472   3.4178

          k =-0.5030-1.0060 0.0000 (   730 PWs)   bands (ev):

    -1.4934  -1.4934   2.2635   2.2635

          k = 0.0000-1.0060 0.4941 (   732 PWs)   bands (ev):

    -1.4544  -1.4544   2.2712   2.2712

          k = 0.0000 0.0000 0.7411 (   729 PWs)   bands (ev):

    -3.4852   0.3594   3.6617   3.6617

          k = 0.2515-0.2515 0.9881 (   724 PWs)   bands (ev):

    -2.0855  -1.1262   1.7962   3.8569

          k = 0.1258-0.1258 0.8646 (   736 PWs)   bands (ev):

    -2.5777  -0.7216   2.7565   3.5899

          k =-0.7545-1.0060 0.0000 (   734 PWs)   bands (ev):

    -1.6306  -1.6306   2.7817   2.7817

          k = 0.0000 0.0000-0.9881 (   740 PWs)   bands (ev):

    -1.7296  -1.7296   3.4176   3.4176

     highest occupied level (ev):     6.2779

!    total energy              =     -19.26002389 Ry
     estimated scf accuracy    <          2.7E-09 Ry

     The total energy is the sum of the following terms:
     one-electron contribution =       5.20859177 Ry
     hartree contribution      =       1.09612621 Ry
     xc contribution           =      -8.64695971 Ry
     ewald contribution        =     -16.91778216 Ry

     convergence has been achieved in   6 iterations

     Forces acting on atoms (cartesian axes, Ry/au):

     atom    1 type  1   force =     0.00000000    0.00000000    0.00000000
     atom    2 type  1   force =     0.00000000    0.00000000    0.00000000

     Total force =     0.000000     Total SCF correction =     0.000000


     Computing stress (Cartesian axis) and pressure

          total   stress  (Ry/bohr**3)                   (kbar)     P=        4.42
   0.00007069  -0.00000000   0.00000000           10.40       -0.00        0.00
  -0.00000000   0.00007069  -0.00000000           -0.00       10.40       -0.00
   0.00000000  -0.00000000  -0.00005117            0.00       -0.00       -7.53


     BFGS Geometry Optimization
     Energy error            =      0.0E+00 Ry
     Gradient error          =      0.0E+00 Ry/Bohr

     bfgs converged in   1 scf cycles and   0 bfgs steps
     (criteria: energy <  1.0E-04 Ry, force <  1.0E-03 Ry/Bohr)

     End of BFGS Geometry Optimization

     Final energy             =     -19.2600238917 Ry
Begin final coordinates

ATOMIC_POSITIONS (crystal)
Si            0.0000000000        0.0000000000        0.0000000000
Si            0.2500000000        0.2500000000        0.2500000000
End final coordinates



     Writing all to output data dir ./Si_elastic_isotropic.save/
 
     init_run     :      1.68s CPU      2.28s WALL (       1 calls)
     electrons    :     12.51s CPU     14.30s WALL (       1 calls)
     forces       :      0.34s CPU      0.47s WALL (       1 calls)
     stress       :      2.08s CPU      2.14s WALL (       1 calls)

     Called by init_run:
     wfcinit      :      0.64s CPU      0.83s WALL (       1 calls)
     potinit      :      0.03s CPU      0.10s WALL (       1 calls)
     hinit0       :      0.84s CPU      0.99s WALL (       1 calls)

     Called by electrons:
     c_bands      :      9.35s CPU     10.82s WALL (       7 calls)
     sum_band     :      2.28s CPU      2.46s WALL (       7 calls)
     v_of_rho     :      0.11s CPU      0.15s WALL (       7 calls)
     newd         :      0.86s CPU      0.97s WALL (       7 calls)
     mix_rho      :      0.02s CPU      0.03s WALL (       7 calls)

     Called by c_bands:
     init_us_2    :      0.73s CPU      0.82s WALL (    1003 calls)
     init_us_2:cp :      0.71s CPU      0.81s WALL (    1003 calls)
     ccgdiagg     :      7.46s CPU      8.13s WALL (     413 calls)
     wfcrot       :      1.98s CPU      2.19s WALL (     354 calls)

     Called by *cgdiagg:
     h_psi        :      7.70s CPU      8.30s WALL (    5311 calls)
     s_psi        :      0.55s CPU      0.65s WALL (   10268 calls)

     Called by h_psi:
     h_psi:calbec :      0.66s CPU      0.74s WALL (    5311 calls)
     vloc_psi     :      6.37s CPU      6.84s WALL (    5311 calls)
     add_vuspsi   :      0.39s CPU      0.43s WALL (    5311 calls)
     hs_1psi      :      6.47s CPU      7.01s WALL (    4957 calls)
     s_1psi       :      0.69s CPU      0.76s WALL (    4957 calls)

     General routines
     calbec       :      0.94s CPU      1.07s WALL (   10976 calls)
     fft          :      0.07s CPU      0.09s WALL (      49 calls)
     ffts         :      0.01s CPU      0.01s WALL (      14 calls)
     fftw         :      5.61s CPU      6.00s WALL (   14870 calls)
     interpolate  :      0.02s CPU      0.02s WALL (       7 calls)
 
     Parallel routines
 
     PWSCF        :     17.19s CPU     22.09s WALL

 
   This run was terminated on:   0:35:50  15Mar2022            

=------------------------------------------------------------------------------=
   JOB DONE.
=------------------------------------------------------------------------------=
