
     Program PWSCF v.7.0 starts on 15Mar2022 at  0:37:28 

     This program is part of the open-source Quantum ESPRESSO suite
     for quantum simulation of materials; please cite
         "P. Giannozzi et al., J. Phys.:Condens. Matter 21 395502 (2009);
         "P. Giannozzi et al., J. Phys.:Condens. Matter 29 465901 (2017);
         "P. Giannozzi et al., J. Chem. Phys. 152 154105 (2020);
          URL http://www.quantum-espresso.org", 
     in publications or presentations arising from this work. More details at
     http://www.quantum-espresso.org/quote

     Parallel version (MPI), running on     1 processors

     MPI processes distributed on     1 nodes
     87986 MiB available memory on the printing compute node when the environment starts
 
     Waiting for input...
     Reading input from standard input
Warning: card &CELL ignored
Warning: card  CELL_DYNAMICS = 'BFGS', ignored
Warning: card  PRESS=0.1D0, ignored
Warning: card / ignored

     Current dimensions of program PWSCF are:
     Max number of different atomic species (ntypx) = 10
     Max number of k-points (npk) =  40000
     Max angular momentum in pseudopotentials (lmaxx) =  4
     Message from routine setup:
     using ibrav=0 with symmetry is DISCOURAGED, use correct ibrav instead

     Subspace diagonalization in iterative solution of the eigenvalue problem:
     a serial algorithm will be used

 
     G-vector sticks info
     --------------------
     sticks:   dense  smooth     PW     G-vecs:    dense   smooth      PW
     Sum        1069     433    143                23199     5897    1099
 
     Using Slab Decomposition
 


     bravais-lattice index     =            0
     lattice parameter (alat)  =      10.1900  a.u.
     unit-cell volume          =     264.4938 (a.u.)^3
     number of atoms/cell      =            2
     number of atomic types    =            1
     number of electrons       =         8.00
     number of Kohn-Sham states=            4
     kinetic-energy cutoff     =      30.0000  Ry
     charge density cutoff     =     300.0000  Ry
     scf convergence threshold =      1.0E-08
     mixing beta               =       0.7000
     number of iterations used =            8  plain     mixing
     energy convergence thresh.=      1.0E-04
     force convergence thresh. =      1.0E-03
     Exchange-correlation= SLA  PZ   NOGX NOGC
                           (   1   1   0   0   0   0   0)
     nstep                     =           50


     celldm(1)=  10.190000  celldm(2)=   0.000000  celldm(3)=   0.000000
     celldm(4)=   0.000000  celldm(5)=   0.000000  celldm(6)=   0.000000

     crystal axes: (cart. coord. in units of alat)
               a(1) = (  -0.503000   0.000000   0.494000 )  
               a(2) = (   0.000000   0.503000   0.494000 )  
               a(3) = (  -0.503000   0.503000   0.000000 )  

     reciprocal axes: (cart. coord. in units 2 pi/alat)
               b(1) = ( -0.994036 -0.994036  1.012146 )  
               b(2) = (  0.994036  0.994036  1.012146 )  
               b(3) = ( -0.994036  0.994036 -1.012146 )  


     PseudoPot. # 1 for Si read from file:
     ./Si_LDA.UPF
     MD5 check sum: b5ade7b37ee992b02096e360e546dc2d
     Pseudo is Ultrasoft + core correction, Zval =  4.0
     Generated by new atomic code, or converted to UPF format
     Using radial grid of  899 points,  6 beta functions with: 
                l(1) =   0
                l(2) =   0
                l(3) =   1
                l(4) =   1
                l(5) =   2
                l(6) =   2
     Q(r) pseudized with  8 coefficients,  rinner =    0.900   0.900   0.900
                                                       0.900   0.900

     atomic species   valence    mass     pseudopotential
        Si             4.00    28.08550     Si( 1.00)

     16 Sym. Ops., with inversion, found ( 8 have fractional translation)



   Cartesian axes

     site n.     atom                  positions (alat units)
         1           Si  tau(   1) = (   0.0000000   0.0000000   0.0000000  )
         2           Si  tau(   2) = (  -0.2515000   0.2515000   0.2470000  )

     number of k points=    59
                       cart. coord. in units 2pi/alat
        k(    1) = (   0.0000000   0.0000000   0.0000000), wk =   0.0039062
        k(    2) = (  -0.1242545   0.1242545  -0.1265182), wk =   0.0312500
        k(    3) = (  -0.2485089   0.2485089  -0.2530364), wk =   0.0312500
        k(    4) = (  -0.3727634   0.3727634  -0.3795547), wk =   0.0312500
        k(    5) = (   0.4970179  -0.4970179   0.5060729), wk =   0.0156250
        k(    6) = (   0.0000000   0.2485089   0.0000000), wk =   0.0156250
        k(    7) = (  -0.1242545   0.3727634  -0.1265182), wk =   0.0625000
        k(    8) = (  -0.2485089   0.4970179  -0.2530364), wk =   0.0625000
        k(    9) = (   0.6212724  -0.3727634   0.6325911), wk =   0.0625000
        k(   10) = (   0.4970179  -0.2485089   0.5060729), wk =   0.0625000
        k(   11) = (   0.3727634  -0.1242545   0.3795547), wk =   0.0625000
        k(   12) = (   0.2485089   0.0000000   0.2530364), wk =   0.0312500
        k(   13) = (   0.0000000   0.4970179   0.0000000), wk =   0.0156250
        k(   14) = (  -0.1242545   0.6212724  -0.1265182), wk =   0.0625000
        k(   15) = (   0.7455268  -0.2485089   0.7591093), wk =   0.0625000
        k(   16) = (   0.6212724  -0.1242545   0.6325911), wk =   0.0625000
        k(   17) = (   0.4970179   0.0000000   0.5060729), wk =   0.0312500
        k(   18) = (   0.0000000   0.7455268   0.0000000), wk =   0.0156250
        k(   19) = (   0.8697813  -0.1242545   0.8856275), wk =   0.0625000
        k(   20) = (   0.7455268   0.0000000   0.7591093), wk =   0.0312500
        k(   21) = (   0.0000000  -0.9940358   0.0000000), wk =   0.0078125
        k(   22) = (   0.0000000   0.0000000   0.2530364), wk =   0.0078125
        k(   23) = (  -0.2485089   0.2485089   0.0000000), wk =   0.0156250
        k(   24) = (  -0.3727634   0.3727634  -0.1265182), wk =   0.0312500
        k(   25) = (   0.4970179  -0.4970179   0.7591093), wk =   0.0312500
        k(   26) = (   0.3727634  -0.3727634   0.6325911), wk =   0.0312500
        k(   27) = (   0.2485089  -0.2485089   0.5060729), wk =   0.0312500
        k(   28) = (   0.1242545  -0.1242545   0.3795547), wk =   0.0312500
        k(   29) = (  -0.2485089   0.4970179   0.0000000), wk =   0.0312500
        k(   30) = (   0.6212724  -0.3727634   0.8856275), wk =   0.0625000
        k(   31) = (   0.4970179  -0.2485089   0.7591093), wk =   0.0625000
        k(   32) = (   0.3727634  -0.1242545   0.6325911), wk =   0.0625000
        k(   33) = (   0.2485089   0.0000000   0.5060729), wk =   0.0312500
        k(   34) = (   0.0000000   0.4970179   0.2530364), wk =   0.0312500
        k(   35) = (   0.7455268  -0.2485089   1.0121457), wk =   0.0312500
        k(   36) = (   0.6212724  -0.1242545   0.8856275), wk =   0.0625000
        k(   37) = (   0.4970179   0.0000000   0.7591093), wk =   0.0312500
        k(   38) = (  -0.8697813  -0.3727634  -0.6325911), wk =   0.0625000
        k(   39) = (  -0.9940358  -0.2485089  -0.7591093), wk =   0.0312500
        k(   40) = (  -0.2485089  -0.9940358   0.0000000), wk =   0.0156250
        k(   41) = (  -0.7455268  -0.2485089  -0.5060729), wk =   0.0312500
        k(   42) = (  -0.8697813  -0.1242545  -0.6325911), wk =   0.0625000
        k(   43) = (   0.0000000  -0.9940358   0.2530364), wk =   0.0156250
        k(   44) = (  -0.7455268  -0.0000000  -0.5060729), wk =   0.0312500
        k(   45) = (   0.0000000   0.0000000   0.5060729), wk =   0.0078125
        k(   46) = (   0.4970179  -0.4970179   1.0121457), wk =   0.0156250
        k(   47) = (   0.3727634  -0.3727634   0.8856275), wk =   0.0312500
        k(   48) = (   0.2485089  -0.2485089   0.7591093), wk =   0.0312500
        k(   49) = (   0.1242545  -0.1242545   0.6325911), wk =   0.0312500
        k(   50) = (   0.4970179  -0.2485089   1.0121457), wk =   0.0312500
        k(   51) = (   0.3727634  -0.1242545   0.8856275), wk =   0.0625000
        k(   52) = (   0.2485089   0.0000000   0.7591093), wk =   0.0312500
        k(   53) = (  -0.4970179  -0.9940358   0.0000000), wk =   0.0156250
        k(   54) = (   0.0000000  -0.9940358   0.5060729), wk =   0.0078125
        k(   55) = (   0.0000000   0.0000000   0.7591093), wk =   0.0078125
        k(   56) = (   0.2485089  -0.2485089   1.0121457), wk =   0.0156250
        k(   57) = (   0.1242545  -0.1242545   0.8856275), wk =   0.0312500
        k(   58) = (  -0.7455268  -0.9940358   0.0000000), wk =   0.0156250
        k(   59) = (   0.0000000   0.0000000  -1.0121457), wk =   0.0039062

     Dense  grid:    23199 G-vectors     FFT dimensions: (  40,  40,  40)

     Smooth grid:     5897 G-vectors     FFT dimensions: (  32,  32,  32)

     Estimated max dynamical RAM per process >      89.54 MB

     Initial potential from superposition of free atoms

     starting charge       7.9988, renormalised to       8.0000
     Starting wfcs are    8 randomized atomic wfcs

     total cpu time spent up to now is        2.3 secs

     Self-consistent Calculation

     iteration #  1     ecut=    30.00 Ry     beta= 0.70
     CG style diagonalization
     ethr =  1.00E-02,  avg # of iterations =  3.0

     Threshold (ethr) on eigenvalues was too large:
     Diagonalizing with lowered threshold

     CG style diagonalization
     ethr =  7.38E-04,  avg # of iterations =  2.0

     total cpu time spent up to now is        5.5 secs

     total energy              =     -19.25634718 Ry
     estimated scf accuracy    <       0.05988619 Ry

     iteration #  2     ecut=    30.00 Ry     beta= 0.70
     CG style diagonalization
     ethr =  7.49E-04,  avg # of iterations =  3.0

     total cpu time spent up to now is        7.3 secs

     total energy              =     -19.25940868 Ry
     estimated scf accuracy    <       0.00196698 Ry

     iteration #  3     ecut=    30.00 Ry     beta= 0.70
     CG style diagonalization
     ethr =  2.46E-05,  avg # of iterations =  4.1

     total cpu time spent up to now is        9.5 secs

     total energy              =     -19.25999071 Ry
     estimated scf accuracy    <       0.00007213 Ry

     iteration #  4     ecut=    30.00 Ry     beta= 0.70
     CG style diagonalization
     ethr =  9.02E-07,  avg # of iterations =  4.3

     total cpu time spent up to now is       11.8 secs

     total energy              =     -19.26002752 Ry
     estimated scf accuracy    <       0.00001531 Ry

     iteration #  5     ecut=    30.00 Ry     beta= 0.70
     CG style diagonalization
     ethr =  1.91E-07,  avg # of iterations =  4.0

     total cpu time spent up to now is       13.9 secs

     total energy              =     -19.26003050 Ry
     estimated scf accuracy    <       0.00000005 Ry

     iteration #  6     ecut=    30.00 Ry     beta= 0.70
     CG style diagonalization
     ethr =  6.64E-10,  avg # of iterations =  5.7

     total cpu time spent up to now is       16.7 secs

     End of self-consistent calculation

          k = 0.0000 0.0000 0.0000 (   725 PWs)   bands (ev):

    -5.8771   6.1930   6.1930   6.3179

          k =-0.1243 0.1243-0.1265 (   731 PWs)   bands (ev):

    -5.6692   4.6113   5.8889   5.9896

          k =-0.2485 0.2485-0.2530 (   743 PWs)   bands (ev):

    -5.0618   2.2479   5.3948   5.5275

          k =-0.3728 0.3728-0.3796 (   744 PWs)   bands (ev):

    -4.1466   0.1904   5.0510   5.2119

          k = 0.4970-0.4970 0.5061 (   738 PWs)   bands (ev):

    -3.4855  -0.8608   4.9331   5.1051

          k = 0.0000 0.2485 0.0000 (   731 PWs)   bands (ev):

    -5.6021   4.8631   5.3930   5.4704

          k =-0.1243 0.3728-0.1265 (   739 PWs)   bands (ev):

    -5.1272   2.9715   4.8921   4.9742

          k =-0.2485 0.4970-0.2530 (   736 PWs)   bands (ev):

    -4.2965   0.8806   4.3177   4.6615

          k = 0.6213-0.3728 0.6326 (   734 PWs)   bands (ev):

    -3.4055  -0.6230   3.8592   4.6911

          k = 0.4970-0.2485 0.5061 (   739 PWs)   bands (ev):

    -3.6494  -0.2532   3.6741   4.9954

          k = 0.3728-0.1243 0.3796 (   740 PWs)   bands (ev):

    -4.5970   1.5366   3.8295   5.4929

          k = 0.2485 0.0000 0.2530 (   738 PWs)   bands (ev):

    -5.3237   3.5211   4.5234   5.9745

          k = 0.0000 0.4970 0.0000 (   725 PWs)   bands (ev):

    -4.7865   2.6618   4.3187   4.3589

          k =-0.1243 0.6213-0.1265 (   734 PWs)   bands (ev):

    -4.0671   1.2352   3.4997   4.0221

          k = 0.7455-0.2485 0.7591 (   729 PWs)   bands (ev):

    -3.1174  -0.2246   2.5829   4.0307

          k = 0.6213-0.1243 0.6326 (   727 PWs)   bands (ev):

    -2.8853  -0.5069   2.1009   4.3590

          k = 0.4970 0.0000 0.5061 (   737 PWs)   bands (ev):

    -3.7831   0.6809   2.3392   4.9298

          k = 0.0000 0.7455 0.0000 (   729 PWs)   bands (ev):

    -3.4620   0.4048   3.6096   3.6272

          k = 0.8698-0.1243 0.8856 (   733 PWs)   bands (ev):

    -2.5502  -0.6862   2.7307   3.5440

          k = 0.7455 0.0000 0.7591 (   728 PWs)   bands (ev):

    -2.0742  -1.0936   1.7988   3.8084

          k = 0.0000-0.9940 0.0000 (   740 PWs)   bands (ev):

    -1.6932  -1.6932   3.3717   3.3717

          k = 0.0000 0.0000 0.2530 (   717 PWs)   bands (ev):

    -5.5932   4.9757   5.3543   5.3543

          k =-0.2485 0.2485 0.0000 (   737 PWs)   bands (ev):

    -5.3322   3.5316   4.6174   5.8736

          k =-0.3728 0.3728-0.1265 (   737 PWs)   bands (ev):

    -4.6121   1.5703   3.9343   5.3661

          k = 0.4970-0.4970 0.7591 (   740 PWs)   bands (ev):

    -3.6636  -0.2244   3.8009   4.8572

          k = 0.3728-0.3728 0.6326 (   736 PWs)   bands (ev):

    -3.3907  -0.6302   3.9930   4.5559

          k = 0.2485-0.2485 0.5061 (   736 PWs)   bands (ev):

    -4.2736   0.8636   4.4336   4.5379

          k = 0.1243-0.1243 0.3796 (   732 PWs)   bands (ev):

    -5.1101   2.9797   4.8213   4.9987

          k =-0.2485 0.4970 0.0000 (   741 PWs)   bands (ev):

    -4.5351   1.9223   3.5081   4.7248

          k = 0.6213-0.3728 0.8856 (   736 PWs)   bands (ev):

    -3.6292   0.3510   2.8842   4.2091

          k = 0.4970-0.2485 0.7591 (   731 PWs)   bands (ev):

    -2.9356  -0.6421   2.7200   4.0159

          k = 0.3728-0.1243 0.6326 (   732 PWs)   bands (ev):

    -3.5908   0.3166   2.7999   4.2973

          k = 0.2485 0.0000 0.5061 (   732 PWs)   bands (ev):

    -4.5031   1.9201   3.3886   4.8109

          k = 0.0000 0.4970 0.2530 (   737 PWs)   bands (ev):

    -4.5280   1.8887   3.4353   4.7942

          k = 0.7455-0.2485 1.0121 (   737 PWs)   bands (ev):

    -3.2558   0.2157   2.8411   3.4018

          k = 0.6213-0.1243 0.8856 (   733 PWs)   bands (ev):

    -2.3469  -0.7619   2.0627   3.2341

          k = 0.4970 0.0000 0.7591 (   735 PWs)   bands (ev):

    -2.6715  -0.4049   1.8466   3.6444

          k =-0.8698-0.3728-0.6326 (   734 PWs)   bands (ev):

    -3.6197   0.3102   2.7988   4.2714

          k =-0.9940-0.2485-0.7591 (   734 PWs)   bands (ev):

    -3.2522   0.1939   2.7872   3.4162

          k =-0.2485-0.9940 0.0000 (   730 PWs)   bands (ev):

    -1.5992  -1.5992   2.7671   2.7671

          k =-0.7455-0.2485-0.5061 (   728 PWs)   bands (ev):

    -2.9458  -0.6606   2.6586   4.0387

          k =-0.8698-0.1243-0.6326 (   727 PWs)   bands (ev):

    -2.3528  -0.7856   2.0435   3.1986

          k = 0.0000-0.9940 0.2530 (   740 PWs)   bands (ev):

    -1.6041  -1.6041   2.7390   2.7390

          k =-0.7455-0.0000-0.5061 (   729 PWs)   bands (ev):

    -2.7011  -0.4202   1.8653   3.5799

          k = 0.0000 0.0000 0.5061 (   729 PWs)   bands (ev):

    -4.7525   2.7880   4.2305   4.2305

          k = 0.4970-0.4970 1.0121 (   742 PWs)   bands (ev):

    -3.8072   0.7464   2.4411   4.7872

          k = 0.3728-0.3728 0.8856 (   730 PWs)   bands (ev):

    -2.8937  -0.4482   2.2004   4.2150

          k = 0.2485-0.2485 0.7591 (   734 PWs)   bands (ev):

    -3.0696  -0.2087   2.6556   3.8942

          k = 0.1243-0.1243 0.6326 (   736 PWs)   bands (ev):

    -4.0190   1.2996   3.4848   3.8979

          k = 0.4970-0.2485 1.0121 (   729 PWs)   bands (ev):

    -2.7050  -0.3492   1.9354   3.5182

          k = 0.3728-0.1243 0.8856 (   732 PWs)   bands (ev):

    -2.3053  -0.7307   2.0603   3.1496

          k = 0.2485 0.0000 0.7591 (   733 PWs)   bands (ev):

    -3.1924   0.2715   2.7134   3.3884

          k =-0.4970-0.9940 0.0000 (   734 PWs)   bands (ev):

    -1.4683  -1.4683   2.2700   2.2700

          k = 0.0000-0.9940 0.5061 (   724 PWs)   bands (ev):

    -1.5046  -1.5046   2.2584   2.2584

          k = 0.0000 0.0000 0.7591 (   733 PWs)   bands (ev):

    -3.3910   0.5371   3.4867   3.4867

          k = 0.2485-0.2485 1.0121 (   738 PWs)   bands (ev):

    -2.0445  -0.9951   1.8116   3.6648

          k = 0.1243-0.1243 0.8856 (   743 PWs)   bands (ev):

    -2.4670  -0.5831   2.6547   3.4049

          k =-0.7455-0.9940 0.0000 (   734 PWs)   bands (ev):

    -1.5159  -1.5159   2.6678   2.6678

          k = 0.0000 0.0000-1.0121 (   740 PWs)   bands (ev):

    -1.5836  -1.5836   3.2316   3.2316

     highest occupied level (ev):     6.3179

!    total energy              =     -19.26003072 Ry
     estimated scf accuracy    <          2.9E-09 Ry

     The total energy is the sum of the following terms:
     one-electron contribution =       5.20861224 Ry
     hartree contribution      =       1.09611191 Ry
     xc contribution           =      -8.64695729 Ry
     ewald contribution        =     -16.91779758 Ry

     convergence has been achieved in   6 iterations

     Forces acting on atoms (cartesian axes, Ry/au):

     atom    1 type  1   force =     0.00000000    0.00000000    0.00000000
     atom    2 type  1   force =     0.00000000    0.00000000    0.00000000

     Total force =     0.000000     Total SCF correction =     0.000000


     Computing stress (Cartesian axis) and pressure

          total   stress  (Ry/bohr**3)                   (kbar)     P=        4.42
  -0.00000830  -0.00000000   0.00000000           -1.22       -0.00        0.00
  -0.00000000  -0.00000830   0.00000000           -0.00       -1.22        0.00
   0.00000000   0.00000000   0.00010672            0.00        0.00       15.70


     BFGS Geometry Optimization
     Energy error            =      0.0E+00 Ry
     Gradient error          =      0.0E+00 Ry/Bohr

     bfgs converged in   1 scf cycles and   0 bfgs steps
     (criteria: energy <  1.0E-04 Ry, force <  1.0E-03 Ry/Bohr)

     End of BFGS Geometry Optimization

     Final energy             =     -19.2600307154 Ry
Begin final coordinates

ATOMIC_POSITIONS (crystal)
Si            0.0000000000        0.0000000000        0.0000000000
Si            0.2500000000        0.2500000000        0.2500000000
End final coordinates



     Writing all to output data dir ./Si_elastic_isotropic.save/
 
     init_run     :      1.64s CPU      1.72s WALL (       1 calls)
     electrons    :     12.82s CPU     14.44s WALL (       1 calls)
     forces       :      0.33s CPU      0.35s WALL (       1 calls)
     stress       :      2.08s CPU      2.10s WALL (       1 calls)

     Called by init_run:
     wfcinit      :      0.63s CPU      0.66s WALL (       1 calls)
     potinit      :      0.03s CPU      0.03s WALL (       1 calls)
     hinit0       :      0.83s CPU      0.84s WALL (       1 calls)

     Called by electrons:
     c_bands      :      9.67s CPU     11.05s WALL (       7 calls)
     sum_band     :      2.28s CPU      2.42s WALL (       7 calls)
     v_of_rho     :      0.11s CPU      0.11s WALL (       7 calls)
     newd         :      0.85s CPU      0.93s WALL (       7 calls)
     mix_rho      :      0.02s CPU      0.03s WALL (       7 calls)

     Called by c_bands:
     init_us_2    :      0.74s CPU      0.82s WALL (    1003 calls)
     init_us_2:cp :      0.72s CPU      0.80s WALL (    1003 calls)
     ccgdiagg     :      7.75s CPU      8.37s WALL (     413 calls)
     wfcrot       :      1.98s CPU      2.07s WALL (     354 calls)

     Called by *cgdiagg:
     h_psi        :      7.82s CPU      8.33s WALL (    5317 calls)
     s_psi        :      0.65s CPU      0.73s WALL (   10280 calls)

     Called by h_psi:
     h_psi:calbec :      0.67s CPU      0.70s WALL (    5317 calls)
     vloc_psi     :      6.43s CPU      6.86s WALL (    5317 calls)
     add_vuspsi   :      0.43s CPU      0.48s WALL (    5317 calls)
     hs_1psi      :      6.64s CPU      7.13s WALL (    4963 calls)
     s_1psi       :      0.78s CPU      0.86s WALL (    4963 calls)

     General routines
     calbec       :      0.98s CPU      1.08s WALL (   10988 calls)
     fft          :      0.06s CPU      0.07s WALL (      49 calls)
     ffts         :      0.01s CPU      0.01s WALL (      14 calls)
     fftw         :      5.65s CPU      6.00s WALL (   14882 calls)
     interpolate  :      0.02s CPU      0.02s WALL (       7 calls)
 
     Parallel routines
 
     PWSCF        :     17.43s CPU     19.71s WALL

 
   This run was terminated on:   0:37:48  15Mar2022            

=------------------------------------------------------------------------------=
   JOB DONE.
=------------------------------------------------------------------------------=
