
     Program PWSCF v.7.0 starts on 14Mar2022 at 15:36:14 

     This program is part of the open-source Quantum ESPRESSO suite
     for quantum simulation of materials; please cite
         "P. Giannozzi et al., J. Phys.:Condens. Matter 21 395502 (2009);
         "P. Giannozzi et al., J. Phys.:Condens. Matter 29 465901 (2017);
         "P. Giannozzi et al., J. Chem. Phys. 152 154105 (2020);
          URL http://www.quantum-espresso.org", 
     in publications or presentations arising from this work. More details at
     http://www.quantum-espresso.org/quote

     Parallel version (MPI), running on     1 processors

     MPI processes distributed on     1 nodes
     90188 MiB available memory on the printing compute node when the environment starts
 
     Waiting for input...
     Reading input from standard input
Warning: card &CELL ignored
Warning: card  CELL_DYNAMICS = 'BFGS', ignored
Warning: card  PRESS=0.1D0, ignored
Warning: card / ignored

     Current dimensions of program PWSCF are:
     Max number of different atomic species (ntypx) = 10
     Max number of k-points (npk) =  40000
     Max angular momentum in pseudopotentials (lmaxx) =  4
     Message from routine setup:
     using ibrav=0 with symmetry is DISCOURAGED, use correct ibrav instead

     Subspace diagonalization in iterative solution of the eigenvalue problem:
     a serial algorithm will be used

 
     G-vector sticks info
     --------------------
     sticks:   dense  smooth     PW     G-vecs:    dense   smooth      PW
     Sum        2149     721    211                65547    12627    2109
 
     Using Slab Decomposition
 


     bravais-lattice index     =            0
     lattice parameter (alat)  =      10.1900  a.u.
     unit-cell volume          =     264.5225 (a.u.)^3
     number of atoms/cell      =            2
     number of atomic types    =            1
     number of electrons       =         8.00
     number of Kohn-Sham states=            4
     kinetic-energy cutoff     =      50.0000  Ry
     charge density cutoff     =     600.0000  Ry
     scf convergence threshold =      1.0E-08
     mixing beta               =       0.7000
     number of iterations used =            8  plain     mixing
     energy convergence thresh.=      1.0E-04
     force convergence thresh. =      1.0E-03
     Exchange-correlation= SLA  PZ   NOGX NOGC
                           (   1   1   0   0   0   0   0)
     nstep                     =           50


     celldm(1)=  10.190000  celldm(2)=   0.000000  celldm(3)=   0.000000
     celldm(4)=   0.000000  celldm(5)=   0.000000  celldm(6)=   0.000000

     crystal axes: (cart. coord. in units of alat)
               a(1) = (  -0.500000   0.000000   0.500000 )  
               a(2) = (   0.000000   0.500000   0.500000 )  
               a(3) = (  -0.500000   0.500000   0.000000 )  

     reciprocal axes: (cart. coord. in units 2 pi/alat)
               b(1) = ( -1.000000 -1.000000  1.000000 )  
               b(2) = (  1.000000  1.000000  1.000000 )  
               b(3) = ( -1.000000  1.000000 -1.000000 )  


     PseudoPot. # 1 for Si read from file:
     ./Si_LDA.UPF
     MD5 check sum: b5ade7b37ee992b02096e360e546dc2d
     Pseudo is Ultrasoft + core correction, Zval =  4.0
     Generated by new atomic code, or converted to UPF format
     Using radial grid of  899 points,  6 beta functions with: 
                l(1) =   0
                l(2) =   0
                l(3) =   1
                l(4) =   1
                l(5) =   2
                l(6) =   2
     Q(r) pseudized with  8 coefficients,  rinner =    0.900   0.900   0.900
                                                       0.900   0.900

     atomic species   valence    mass     pseudopotential
        Si             4.00    28.08550     Si( 1.00)

     48 Sym. Ops., with inversion, found (24 have fractional translation)



   Cartesian axes

     site n.     atom                  positions (alat units)
         1           Si  tau(   1) = (   0.0000000   0.0000000   0.0000000  )
         2           Si  tau(   2) = (  -0.2500000   0.2500000   0.2500000  )

     number of k points=    47
                       cart. coord. in units 2pi/alat
        k(    1) = (   0.0000000   0.0000000   0.0000000), wk =   0.0020000
        k(    2) = (  -0.1000000   0.1000000  -0.1000000), wk =   0.0160000
        k(    3) = (  -0.2000000   0.2000000  -0.2000000), wk =   0.0160000
        k(    4) = (  -0.3000000   0.3000000  -0.3000000), wk =   0.0160000
        k(    5) = (  -0.4000000   0.4000000  -0.4000000), wk =   0.0160000
        k(    6) = (   0.5000000  -0.5000000   0.5000000), wk =   0.0080000
        k(    7) = (   0.0000000   0.2000000   0.0000000), wk =   0.0120000
        k(    8) = (  -0.1000000   0.3000000  -0.1000000), wk =   0.0480000
        k(    9) = (  -0.2000000   0.4000000  -0.2000000), wk =   0.0480000
        k(   10) = (  -0.3000000   0.5000000  -0.3000000), wk =   0.0480000
        k(   11) = (   0.6000000  -0.4000000   0.6000000), wk =   0.0480000
        k(   12) = (   0.5000000  -0.3000000   0.5000000), wk =   0.0480000
        k(   13) = (   0.4000000  -0.2000000   0.4000000), wk =   0.0480000
        k(   14) = (   0.3000000  -0.1000000   0.3000000), wk =   0.0480000
        k(   15) = (   0.2000000   0.0000000   0.2000000), wk =   0.0240000
        k(   16) = (   0.0000000   0.4000000   0.0000000), wk =   0.0120000
        k(   17) = (  -0.1000000   0.5000000  -0.1000000), wk =   0.0480000
        k(   18) = (  -0.2000000   0.6000000  -0.2000000), wk =   0.0480000
        k(   19) = (   0.7000000  -0.3000000   0.7000000), wk =   0.0480000
        k(   20) = (   0.6000000  -0.2000000   0.6000000), wk =   0.0480000
        k(   21) = (   0.5000000  -0.1000000   0.5000000), wk =   0.0480000
        k(   22) = (   0.4000000   0.0000000   0.4000000), wk =   0.0240000
        k(   23) = (  -0.0000000   0.6000000  -0.0000000), wk =   0.0120000
        k(   24) = (  -0.1000000   0.7000000  -0.1000000), wk =   0.0480000
        k(   25) = (   0.8000000  -0.2000000   0.8000000), wk =   0.0480000
        k(   26) = (   0.7000000  -0.1000000   0.7000000), wk =   0.0480000
        k(   27) = (   0.6000000   0.0000000   0.6000000), wk =   0.0240000
        k(   28) = (   0.0000000   0.8000000   0.0000000), wk =   0.0120000
        k(   29) = (   0.9000000  -0.1000000   0.9000000), wk =   0.0480000
        k(   30) = (   0.8000000   0.0000000   0.8000000), wk =   0.0240000
        k(   31) = (   0.0000000  -1.0000000   0.0000000), wk =   0.0060000
        k(   32) = (  -0.2000000   0.4000000   0.0000000), wk =   0.0480000
        k(   33) = (  -0.3000000   0.5000000  -0.1000000), wk =   0.0960000
        k(   34) = (   0.6000000  -0.4000000   0.8000000), wk =   0.0960000
        k(   35) = (   0.5000000  -0.3000000   0.7000000), wk =   0.0480000
        k(   36) = (  -0.2000000   0.6000000   0.0000000), wk =   0.0480000
        k(   37) = (   0.7000000  -0.3000000   0.9000000), wk =   0.0960000
        k(   38) = (   0.6000000  -0.2000000   0.8000000), wk =   0.0960000
        k(   39) = (   0.5000000  -0.1000000   0.7000000), wk =   0.0960000
        k(   40) = (   0.4000000   0.0000000   0.6000000), wk =   0.0480000
        k(   41) = (   0.8000000  -0.2000000   1.0000000), wk =   0.0480000
        k(   42) = (   0.7000000  -0.1000000   0.9000000), wk =   0.0960000
        k(   43) = (   0.6000000   0.0000000   0.8000000), wk =   0.0480000
        k(   44) = (  -0.2000000  -1.0000000  -0.0000000), wk =   0.0240000
        k(   45) = (   0.6000000  -0.2000000   1.0000000), wk =   0.0480000
        k(   46) = (   0.5000000  -0.1000000   0.9000000), wk =   0.0480000
        k(   47) = (  -0.4000000  -1.0000000  -0.0000000), wk =   0.0240000

     Dense  grid:    65547 G-vectors     FFT dimensions: (  60,  60,  60)

     Smooth grid:    12627 G-vectors     FFT dimensions: (  36,  36,  36)

     Estimated max dynamical RAM per process >     250.17 MB

     Initial potential from superposition of free atoms

     starting charge       7.9988, renormalised to       8.0000
     Starting wfcs are    8 randomized atomic wfcs

     total cpu time spent up to now is        3.5 secs

     Self-consistent Calculation

     iteration #  1     ecut=    50.00 Ry     beta= 0.70
     CG style diagonalization
     ethr =  1.00E-02,  avg # of iterations =  3.0

     Threshold (ethr) on eigenvalues was too large:
     Diagonalizing with lowered threshold

     CG style diagonalization
     ethr =  7.39E-04,  avg # of iterations =  2.0

     total cpu time spent up to now is        9.2 secs

     total energy              =     -19.25692162 Ry
     estimated scf accuracy    <       0.05961222 Ry

     iteration #  2     ecut=    50.00 Ry     beta= 0.70
     CG style diagonalization
     ethr =  7.45E-04,  avg # of iterations =  3.0

     total cpu time spent up to now is       12.4 secs

     total energy              =     -19.25993561 Ry
     estimated scf accuracy    <       0.00197226 Ry

     iteration #  3     ecut=    50.00 Ry     beta= 0.70
     CG style diagonalization
     ethr =  2.47E-05,  avg # of iterations =  4.1

     total cpu time spent up to now is       16.3 secs

     total energy              =     -19.26052894 Ry
     estimated scf accuracy    <       0.00007136 Ry

     iteration #  4     ecut=    50.00 Ry     beta= 0.70
     CG style diagonalization
     ethr =  8.92E-07,  avg # of iterations =  4.3

     total cpu time spent up to now is       20.4 secs

     total energy              =     -19.26056587 Ry
     estimated scf accuracy    <       0.00001549 Ry

     iteration #  5     ecut=    50.00 Ry     beta= 0.70
     CG style diagonalization
     ethr =  1.94E-07,  avg # of iterations =  4.0

     total cpu time spent up to now is       24.2 secs

     total energy              =     -19.26056893 Ry
     estimated scf accuracy    <       0.00000005 Ry

     iteration #  6     ecut=    50.00 Ry     beta= 0.70
     CG style diagonalization
     ethr =  6.09E-10,  avg # of iterations =  5.8

     total cpu time spent up to now is       29.2 secs

     End of self-consistent calculation

          k = 0.0000 0.0000 0.0000 (  1591 PWs)   bands (ev):

    -5.8793   6.2310   6.2310   6.2310

          k =-0.1000 0.1000-0.1000 (  1555 PWs)   bands (ev):

    -5.7460   5.0689   6.0276   6.0276

          k =-0.2000 0.2000-0.2000 (  1561 PWs)   bands (ev):

    -5.3522   3.1779   5.6401   5.6401

          k =-0.3000 0.3000-0.3000 (  1585 PWs)   bands (ev):

    -4.7240   1.3619   5.3015   5.3015

          k =-0.4000 0.4000-0.4000 (  1586 PWs)   bands (ev):

    -3.9574  -0.1444   5.0878   5.0878

          k = 0.5000-0.5000 0.5000 (  1568 PWs)   bands (ev):

    -3.4887  -0.8632   5.0158   5.0158

          k = 0.0000 0.2000 0.0000 (  1571 PWs)   bands (ev):

    -5.7013   5.2942   5.6375   5.6375

          k =-0.1000 0.3000-0.1000 (  1569 PWs)   bands (ev):

    -5.3932   3.7532   5.1940   5.3732

          k =-0.2000 0.4000-0.2000 (  1584 PWs)   bands (ev):

    -4.8388   1.9614   4.8713   4.9308

          k =-0.3000 0.5000-0.3000 (  1574 PWs)   bands (ev):

    -4.0977   0.3571   4.5117   4.7243

          k = 0.6000-0.4000 0.6000 (  1571 PWs)   bands (ev):

    -3.4353  -0.7082   4.2150   4.7608

          k = 0.5000-0.3000 0.5000 (  1579 PWs)   bands (ev):

    -3.6092  -0.4514   4.0817   4.9665

          k = 0.4000-0.2000 0.4000 (  1570 PWs)   bands (ev):

    -4.3596   0.8614   4.1387   5.3084

          k = 0.3000-0.1000 0.3000 (  1579 PWs)   bands (ev):

    -5.0503   2.5426   4.4140   5.7222

          k = 0.2000 0.0000 0.2000 (  1560 PWs)   bands (ev):

    -5.5254   4.1812   5.0325   6.0547

          k = 0.0000 0.4000 0.0000 (  1571 PWs)   bands (ev):

    -5.1712   3.6021   4.7074   4.7074

          k =-0.1000 0.5000-0.1000 (  1581 PWs)   bands (ev):

    -4.6966   2.3334   4.1873   4.3538

          k =-0.2000 0.6000-0.2000 (  1581 PWs)   bands (ev):

    -4.0067   0.8647   3.5436   4.1931

          k = 0.7000-0.3000 0.7000 (  1583 PWs)   bands (ev):

    -3.2548  -0.3510   3.0226   4.2400

          k = 0.6000-0.2000 0.6000 (  1572 PWs)   bands (ev):

    -3.0951  -0.5673   2.7149   4.4849

          k = 0.5000-0.1000 0.5000 (  1577 PWs)   bands (ev):

    -3.7696   0.4490   2.6868   4.8920

          k = 0.4000 0.0000 0.4000 (  1570 PWs)   bands (ev):

    -4.5042   1.7141   3.1426   5.3737

          k =-0.0000 0.6000-0.0000 (  1580 PWs)   bands (ev):

    -4.3018   1.7934   3.9535   3.9535

          k =-0.1000 0.7000-0.1000 (  1589 PWs)   bands (ev):

    -3.6769   0.7735   3.3011   3.7459

          k = 0.8000-0.2000 0.8000 (  1587 PWs)   bands (ev):

    -2.9086  -0.2523   2.4418   3.7539

          k = 0.7000-0.1000 0.7000 (  1579 PWs)   bands (ev):

    -2.4728  -0.7444   1.8699   3.9748

          k = 0.6000 0.0000 0.6000 (  1578 PWs)   bands (ev):

    -3.0259  -0.1420   1.8411   4.3804

          k = 0.0000 0.8000 0.0000 (  1592 PWs)   bands (ev):

    -3.1175   0.0067   3.4812   3.4812

          k = 0.9000-0.1000 0.9000 (  1586 PWs)   bands (ev):

    -2.3739  -0.8462   2.8651   3.4323

          k = 0.8000 0.0000 0.8000 (  1596 PWs)   bands (ev):

    -1.8795  -1.2780   2.0466   3.6033

          k = 0.0000-1.0000 0.0000 (  1588 PWs)   bands (ev):

    -1.6598  -1.6598   3.3212   3.3212

          k =-0.2000 0.4000 0.0000 (  1573 PWs)   bands (ev):

    -5.0025   2.8306   4.0892   5.2426

          k =-0.3000 0.5000-0.1000 (  1577 PWs)   bands (ev):

    -4.3784   1.3948   3.4927   4.8568

          k = 0.6000-0.4000 0.8000 (  1575 PWs)   bands (ev):

    -3.6125  -0.0007   3.2634   4.4965

          k = 0.5000-0.3000 0.7000 (  1570 PWs)   bands (ev):

    -3.1366  -0.6998   3.2051   4.3545

          k =-0.2000 0.6000 0.0000 (  1575 PWs)   bands (ev):

    -4.1483   1.4280   3.3474   4.0961

          k = 0.7000-0.3000 0.9000 (  1584 PWs)   bands (ev):

    -3.4119   0.3056   2.7130   3.7546

          k = 0.6000-0.2000 0.8000 (  1585 PWs)   bands (ev):

    -2.7414  -0.5831   2.2954   3.6972

          k = 0.5000-0.1000 0.7000 (  1573 PWs)   bands (ev):

    -2.9489  -0.3157   2.1369   3.9446

          k = 0.4000 0.0000 0.6000 (  1580 PWs)   bands (ev):

    -3.7039   0.6556   2.4403   4.3985

          k = 0.8000-0.2000 1.0000 (  1587 PWs)   bands (ev):

    -2.9951  -0.0782   2.9283   3.2643

          k = 0.7000-0.1000 0.9000 (  1589 PWs)   bands (ev):

    -2.2381  -0.8653   2.1957   3.1701

          k = 0.6000 0.0000 0.8000 (  1580 PWs)   bands (ev):

    -2.2378  -0.8429   1.7639   3.4473

          k =-0.2000-1.0000-0.0000 (  1594 PWs)   bands (ev):

    -1.6028  -1.6028   2.8849   2.8849

          k = 0.6000-0.2000 1.0000 (  1586 PWs)   bands (ev):

    -2.6630  -0.3812   2.1363   3.1523

          k = 0.5000-0.1000 0.9000 (  1588 PWs)   bands (ev):

    -2.1374  -0.9003   1.9723   2.8923

          k =-0.4000-1.0000-0.0000 (  1586 PWs)   bands (ev):

    -1.5017  -1.5017   2.3440   2.3440

     highest occupied level (ev):     6.2310

!    total energy              =     -19.26056915 Ry
     estimated scf accuracy    <          3.2E-09 Ry

     The total energy is the sum of the following terms:
     one-electron contribution =       5.20624274 Ry
     hartree contribution      =       1.09603913 Ry
     xc contribution           =      -8.64650779 Ry
     ewald contribution        =     -16.91634322 Ry

     convergence has been achieved in   6 iterations

     Forces acting on atoms (cartesian axes, Ry/au):

     atom    1 type  1   force =     0.00000000    0.00000000    0.00000000
     atom    2 type  1   force =    -0.00000000   -0.00000000   -0.00000000

     Total force =     0.000000     Total SCF correction =     0.000000


     Computing stress (Cartesian axis) and pressure

          total   stress  (Ry/bohr**3)                   (kbar)     P=        4.34
   0.00002951   0.00000000  -0.00000000            4.34        0.00       -0.00
   0.00000000   0.00002951  -0.00000000            0.00        4.34       -0.00
   0.00000000  -0.00000000   0.00002951            0.00       -0.00        4.34


     BFGS Geometry Optimization
     Energy error            =      0.0E+00 Ry
     Gradient error          =      8.2E-32 Ry/Bohr

     bfgs converged in   1 scf cycles and   0 bfgs steps
     (criteria: energy <  1.0E-04 Ry, force <  1.0E-03 Ry/Bohr)

     End of BFGS Geometry Optimization

     Final energy             =     -19.2605691505 Ry
Begin final coordinates

ATOMIC_POSITIONS (crystal)
Si            0.0000000000        0.0000000000        0.0000000000
Si            0.2500000000        0.2500000000        0.2500000000
End final coordinates



     Writing all to output data dir ./Si_elastic_trigonal.save/
 
     init_run     :      2.78s CPU      2.92s WALL (       1 calls)
     electrons    :     23.50s CPU     25.76s WALL (       1 calls)
     forces       :      0.71s CPU      0.76s WALL (       1 calls)
     stress       :      5.28s CPU      5.41s WALL (       1 calls)

     Called by init_run:
     wfcinit      :      1.15s CPU      1.20s WALL (       1 calls)
     potinit      :      0.07s CPU      0.09s WALL (       1 calls)
     hinit0       :      1.09s CPU      1.10s WALL (       1 calls)

     Called by electrons:
     c_bands      :     16.25s CPU     17.89s WALL (       7 calls)
     sum_band     :      4.88s CPU      5.22s WALL (       7 calls)
     v_of_rho     :      0.36s CPU      0.38s WALL (       7 calls)
     newd         :      2.24s CPU      2.49s WALL (       7 calls)
     mix_rho      :      0.07s CPU      0.08s WALL (       7 calls)

     Called by c_bands:
     init_us_2    :      1.28s CPU      1.36s WALL (     799 calls)
     init_us_2:cp :      1.26s CPU      1.34s WALL (     799 calls)
     ccgdiagg     :     13.08s CPU     14.02s WALL (     329 calls)
     wfcrot       :      3.48s CPU      3.64s WALL (     282 calls)

     Called by *cgdiagg:
     h_psi        :     13.62s CPU     14.34s WALL (    4262 calls)
     s_psi        :      1.23s CPU      1.46s WALL (    8242 calls)

     Called by h_psi:
     h_psi:calbec :      0.86s CPU      0.90s WALL (    4262 calls)
     vloc_psi     :     11.75s CPU     12.33s WALL (    4262 calls)
     add_vuspsi   :      0.72s CPU      0.83s WALL (    4262 calls)
     hs_1psi      :     11.30s CPU     11.97s WALL (    3980 calls)
     s_1psi       :      1.35s CPU      1.53s WALL (    3980 calls)

     General routines
     calbec       :      1.43s CPU      1.65s WALL (    8806 calls)
     fft          :      0.21s CPU      0.22s WALL (      49 calls)
     ffts         :      0.02s CPU      0.02s WALL (      14 calls)
     fftw         :     11.13s CPU     11.64s WALL (   11908 calls)
     interpolate  :      0.05s CPU      0.05s WALL (       7 calls)
 
     Parallel routines
 
     PWSCF        :     32.81s CPU     35.92s WALL

 
   This run was terminated on:  15:36:50  14Mar2022            

=------------------------------------------------------------------------------=
   JOB DONE.
=------------------------------------------------------------------------------=
