
     Program PWSCF v.7.0 starts on 15Mar2022 at  0:37: 7 

     This program is part of the open-source Quantum ESPRESSO suite
     for quantum simulation of materials; please cite
         "P. Giannozzi et al., J. Phys.:Condens. Matter 21 395502 (2009);
         "P. Giannozzi et al., J. Phys.:Condens. Matter 29 465901 (2017);
         "P. Giannozzi et al., J. Chem. Phys. 152 154105 (2020);
          URL http://www.quantum-espresso.org", 
     in publications or presentations arising from this work. More details at
     http://www.quantum-espresso.org/quote

     Parallel version (MPI), running on     1 processors

     MPI processes distributed on     1 nodes
     87989 MiB available memory on the printing compute node when the environment starts
 
     Waiting for input...
     Reading input from standard input
Warning: card &CELL ignored
Warning: card  CELL_DYNAMICS = 'BFGS', ignored
Warning: card  PRESS=0.1D0, ignored
Warning: card / ignored

     Current dimensions of program PWSCF are:
     Max number of different atomic species (ntypx) = 10
     Max number of k-points (npk) =  40000
     Max angular momentum in pseudopotentials (lmaxx) =  4
     Message from routine setup:
     using ibrav=0 with symmetry is DISCOURAGED, use correct ibrav instead

     Subspace diagonalization in iterative solution of the eigenvalue problem:
     a serial algorithm will be used

 
     G-vector sticks info
     --------------------
     sticks:   dense  smooth     PW     G-vecs:    dense   smooth      PW
     Sum        1069     433    139                23199     5913    1075
 
     Using Slab Decomposition
 


     bravais-lattice index     =            0
     lattice parameter (alat)  =      10.1900  a.u.
     unit-cell volume          =     264.5097 (a.u.)^3
     number of atoms/cell      =            2
     number of atomic types    =            1
     number of electrons       =         8.00
     number of Kohn-Sham states=            4
     kinetic-energy cutoff     =      30.0000  Ry
     charge density cutoff     =     300.0000  Ry
     scf convergence threshold =      1.0E-08
     mixing beta               =       0.7000
     number of iterations used =            8  plain     mixing
     energy convergence thresh.=      1.0E-04
     force convergence thresh. =      1.0E-03
     Exchange-correlation= SLA  PZ   NOGX NOGC
                           (   1   1   0   0   0   0   0)
     nstep                     =           50


     celldm(1)=  10.190000  celldm(2)=   0.000000  celldm(3)=   0.000000
     celldm(4)=   0.000000  celldm(5)=   0.000000  celldm(6)=   0.000000

     crystal axes: (cart. coord. in units of alat)
               a(1) = (  -0.502000   0.000000   0.496000 )  
               a(2) = (   0.000000   0.502000   0.496000 )  
               a(3) = (  -0.502000   0.502000   0.000000 )  

     reciprocal axes: (cart. coord. in units 2 pi/alat)
               b(1) = ( -0.996016 -0.996016  1.008065 )  
               b(2) = (  0.996016  0.996016  1.008065 )  
               b(3) = ( -0.996016  0.996016 -1.008065 )  


     PseudoPot. # 1 for Si read from file:
     ./Si_LDA.UPF
     MD5 check sum: b5ade7b37ee992b02096e360e546dc2d
     Pseudo is Ultrasoft + core correction, Zval =  4.0
     Generated by new atomic code, or converted to UPF format
     Using radial grid of  899 points,  6 beta functions with: 
                l(1) =   0
                l(2) =   0
                l(3) =   1
                l(4) =   1
                l(5) =   2
                l(6) =   2
     Q(r) pseudized with  8 coefficients,  rinner =    0.900   0.900   0.900
                                                       0.900   0.900

     atomic species   valence    mass     pseudopotential
        Si             4.00    28.08550     Si( 1.00)

     16 Sym. Ops., with inversion, found ( 8 have fractional translation)



   Cartesian axes

     site n.     atom                  positions (alat units)
         1           Si  tau(   1) = (   0.0000000   0.0000000   0.0000000  )
         2           Si  tau(   2) = (  -0.2510000   0.2510000   0.2480000  )

     number of k points=    59
                       cart. coord. in units 2pi/alat
        k(    1) = (   0.0000000   0.0000000   0.0000000), wk =   0.0039062
        k(    2) = (  -0.1245020   0.1245020  -0.1260081), wk =   0.0312500
        k(    3) = (  -0.2490040   0.2490040  -0.2520161), wk =   0.0312500
        k(    4) = (  -0.3735060   0.3735060  -0.3780242), wk =   0.0312500
        k(    5) = (   0.4980080  -0.4980080   0.5040323), wk =   0.0156250
        k(    6) = (   0.0000000   0.2490040   0.0000000), wk =   0.0156250
        k(    7) = (  -0.1245020   0.3735060  -0.1260081), wk =   0.0625000
        k(    8) = (  -0.2490040   0.4980080  -0.2520161), wk =   0.0625000
        k(    9) = (   0.6225100  -0.3735060   0.6300403), wk =   0.0625000
        k(   10) = (   0.4980080  -0.2490040   0.5040323), wk =   0.0625000
        k(   11) = (   0.3735060  -0.1245020   0.3780242), wk =   0.0625000
        k(   12) = (   0.2490040   0.0000000   0.2520161), wk =   0.0312500
        k(   13) = (   0.0000000   0.4980080   0.0000000), wk =   0.0156250
        k(   14) = (  -0.1245020   0.6225100  -0.1260081), wk =   0.0625000
        k(   15) = (   0.7470120  -0.2490040   0.7560484), wk =   0.0625000
        k(   16) = (   0.6225100  -0.1245020   0.6300403), wk =   0.0625000
        k(   17) = (   0.4980080   0.0000000   0.5040323), wk =   0.0312500
        k(   18) = (  -0.0000000   0.7470120   0.0000000), wk =   0.0156250
        k(   19) = (   0.8715139  -0.1245020   0.8820565), wk =   0.0625000
        k(   20) = (   0.7470120  -0.0000000   0.7560484), wk =   0.0312500
        k(   21) = (   0.0000000  -0.9960159   0.0000000), wk =   0.0078125
        k(   22) = (   0.0000000   0.0000000   0.2520161), wk =   0.0078125
        k(   23) = (  -0.2490040   0.2490040   0.0000000), wk =   0.0156250
        k(   24) = (  -0.3735060   0.3735060  -0.1260081), wk =   0.0312500
        k(   25) = (   0.4980080  -0.4980080   0.7560484), wk =   0.0312500
        k(   26) = (   0.3735060  -0.3735060   0.6300403), wk =   0.0312500
        k(   27) = (   0.2490040  -0.2490040   0.5040323), wk =   0.0312500
        k(   28) = (   0.1245020  -0.1245020   0.3780242), wk =   0.0312500
        k(   29) = (  -0.2490040   0.4980080   0.0000000), wk =   0.0312500
        k(   30) = (   0.6225100  -0.3735060   0.8820565), wk =   0.0625000
        k(   31) = (   0.4980080  -0.2490040   0.7560484), wk =   0.0625000
        k(   32) = (   0.3735060  -0.1245020   0.6300403), wk =   0.0625000
        k(   33) = (   0.2490040   0.0000000   0.5040323), wk =   0.0312500
        k(   34) = (  -0.0000000   0.4980080   0.2520161), wk =   0.0312500
        k(   35) = (   0.7470120  -0.2490040   1.0080645), wk =   0.0312500
        k(   36) = (   0.6225100  -0.1245020   0.8820565), wk =   0.0625000
        k(   37) = (   0.4980080  -0.0000000   0.7560484), wk =   0.0312500
        k(   38) = (  -0.8715139  -0.3735060  -0.6300403), wk =   0.0625000
        k(   39) = (  -0.9960159  -0.2490040  -0.7560484), wk =   0.0312500
        k(   40) = (  -0.2490040  -0.9960159  -0.0000000), wk =   0.0156250
        k(   41) = (  -0.7470120  -0.2490040  -0.5040323), wk =   0.0312500
        k(   42) = (  -0.8715139  -0.1245020  -0.6300403), wk =   0.0625000
        k(   43) = (   0.0000000  -0.9960159   0.2520161), wk =   0.0156250
        k(   44) = (  -0.7470120   0.0000000  -0.5040323), wk =   0.0312500
        k(   45) = (   0.0000000   0.0000000   0.5040323), wk =   0.0078125
        k(   46) = (   0.4980080  -0.4980080   1.0080645), wk =   0.0156250
        k(   47) = (   0.3735060  -0.3735060   0.8820565), wk =   0.0312500
        k(   48) = (   0.2490040  -0.2490040   0.7560484), wk =   0.0312500
        k(   49) = (   0.1245020  -0.1245020   0.6300403), wk =   0.0312500
        k(   50) = (   0.4980080  -0.2490040   1.0080645), wk =   0.0312500
        k(   51) = (   0.3735060  -0.1245020   0.8820565), wk =   0.0625000
        k(   52) = (   0.2490040  -0.0000000   0.7560484), wk =   0.0312500
        k(   53) = (  -0.4980080  -0.9960159   0.0000000), wk =   0.0156250
        k(   54) = (   0.0000000  -0.9960159   0.5040323), wk =   0.0078125
        k(   55) = (  -0.0000000  -0.0000000   0.7560484), wk =   0.0078125
        k(   56) = (   0.2490040  -0.2490040   1.0080645), wk =   0.0156250
        k(   57) = (   0.1245020  -0.1245020   0.8820565), wk =   0.0312500
        k(   58) = (  -0.7470120  -0.9960159   0.0000000), wk =   0.0156250
        k(   59) = (   0.0000000   0.0000000  -1.0080645), wk =   0.0039062

     Dense  grid:    23199 G-vectors     FFT dimensions: (  40,  40,  40)

     Smooth grid:     5913 G-vectors     FFT dimensions: (  32,  32,  32)

     Estimated max dynamical RAM per process >      89.54 MB

     Initial potential from superposition of free atoms

     starting charge       7.9988, renormalised to       8.0000
     Starting wfcs are    8 randomized atomic wfcs

     total cpu time spent up to now is        2.3 secs

     Self-consistent Calculation

     iteration #  1     ecut=    30.00 Ry     beta= 0.70
     CG style diagonalization
     ethr =  1.00E-02,  avg # of iterations =  3.0

     Threshold (ethr) on eigenvalues was too large:
     Diagonalizing with lowered threshold

     CG style diagonalization
     ethr =  7.37E-04,  avg # of iterations =  2.0

     total cpu time spent up to now is        5.5 secs

     total energy              =     -19.25646142 Ry
     estimated scf accuracy    <       0.05982776 Ry

     iteration #  2     ecut=    30.00 Ry     beta= 0.70
     CG style diagonalization
     ethr =  7.48E-04,  avg # of iterations =  3.0

     total cpu time spent up to now is        7.2 secs

     total energy              =     -19.25950817 Ry
     estimated scf accuracy    <       0.00197257 Ry

     iteration #  3     ecut=    30.00 Ry     beta= 0.70
     CG style diagonalization
     ethr =  2.47E-05,  avg # of iterations =  4.1

     total cpu time spent up to now is        9.4 secs

     total energy              =     -19.26009531 Ry
     estimated scf accuracy    <       0.00007103 Ry

     iteration #  4     ecut=    30.00 Ry     beta= 0.70
     CG style diagonalization
     ethr =  8.88E-07,  avg # of iterations =  4.3

     total cpu time spent up to now is       11.7 secs

     total energy              =     -19.26013062 Ry
     estimated scf accuracy    <       0.00001485 Ry

     iteration #  5     ecut=    30.00 Ry     beta= 0.70
     CG style diagonalization
     ethr =  1.86E-07,  avg # of iterations =  3.9

     total cpu time spent up to now is       13.9 secs

     total energy              =     -19.26013344 Ry
     estimated scf accuracy    <       0.00000005 Ry

     iteration #  6     ecut=    30.00 Ry     beta= 0.70
     CG style diagonalization
     ethr =  6.41E-10,  avg # of iterations =  5.6

     total cpu time spent up to now is       16.7 secs

     End of self-consistent calculation

          k = 0.0000 0.0000 0.0000 (   725 PWs)   bands (ev):

    -5.8776   6.2057   6.2057   6.2895

          k =-0.1245 0.1245-0.1260 (   734 PWs)   bands (ev):

    -5.6697   4.6109   5.9043   5.9716

          k =-0.2490 0.2490-0.2520 (   741 PWs)   bands (ev):

    -5.0624   2.2470   5.4157   5.5045

          k =-0.3735 0.3735-0.3780 (   744 PWs)   bands (ev):

    -4.1474   0.1896   5.0767   5.1844

          k = 0.4980-0.4980 0.5040 (   742 PWs)   bands (ev):

    -3.4864  -0.8614   4.9606   5.0758

          k = 0.0000 0.2490 0.0000 (   731 PWs)   bands (ev):

    -5.6016   4.8749   5.3960   5.4478

          k =-0.1245 0.3735-0.1260 (   736 PWs)   bands (ev):

    -5.1259   2.9718   4.8946   4.9641

          k =-0.2490 0.4980-0.2520 (   738 PWs)   bands (ev):

    -4.2946   0.8778   4.3327   4.6438

          k = 0.6225-0.3735 0.6300 (   735 PWs)   bands (ev):

    -3.4047  -0.6245   3.8748   4.6738

          k = 0.4980-0.2490 0.5040 (   740 PWs)   bands (ev):

    -3.6518  -0.2507   3.6882   4.9787

          k = 0.3735-0.1245 0.3780 (   739 PWs)   bands (ev):

    -4.5994   1.5396   3.8405   5.4780

          k = 0.2490 0.0000 0.2520 (   740 PWs)   bands (ev):

    -5.3252   3.5218   4.5326   5.9625

          k = 0.0000 0.4980 0.0000 (   729 PWs)   bands (ev):

    -4.7833   2.6752   4.3120   4.3389

          k =-0.1245 0.6225-0.1260 (   733 PWs)   bands (ev):

    -4.0624   1.2420   3.4969   4.0066

          k = 0.7470-0.2490 0.7560 (   733 PWs)   bands (ev):

    -3.1129  -0.2235   2.5901   4.0143

          k = 0.6225-0.1245 0.6300 (   727 PWs)   bands (ev):

    -2.8871  -0.5012   2.1112   4.3423

          k = 0.4980 0.0000 0.5040 (   739 PWs)   bands (ev):

    -3.7865   0.6875   2.3495   4.9137

          k =-0.0000 0.7470 0.0000 (   729 PWs)   bands (ev):

    -3.4548   0.4187   3.5965   3.6082

          k = 0.8715-0.1245 0.8821 (   734 PWs)   bands (ev):

    -2.5417  -0.6755   2.7209   3.5272

          k = 0.7470-0.0000 0.7560 (   727 PWs)   bands (ev):

    -2.0717  -1.0835   1.7991   3.7915

          k = 0.0000-0.9960 0.0000 (   740 PWs)   bands (ev):

    -1.6819  -1.6819   3.3547   3.3547

          k = 0.0000 0.0000 0.2520 (   717 PWs)   bands (ev):

    -5.5957   4.9506   5.3701   5.3701

          k =-0.2490 0.2490 0.0000 (   741 PWs)   bands (ev):

    -5.3309   3.5285   4.5953   5.8949

          k =-0.3735 0.3735-0.1260 (   739 PWs)   bands (ev):

    -4.6094   1.5619   3.9101   5.3933

          k = 0.4980-0.4980 0.7560 (   737 PWs)   bands (ev):

    -3.6612  -0.2316   3.7723   4.8865

          k = 0.3735-0.3735 0.6300 (   740 PWs)   bands (ev):

    -3.3949  -0.6293   3.9635   4.5841

          k = 0.2490-0.2490 0.5040 (   741 PWs)   bands (ev):

    -4.2794   0.8667   4.4091   4.5625

          k = 0.1245-0.1245 0.3780 (   732 PWs)   bands (ev):

    -5.1145   2.9778   4.8414   4.9865

          k =-0.2490 0.4980 0.0000 (   737 PWs)   bands (ev):

    -4.5314   1.9178   3.4855   4.7407

          k = 0.6225-0.3735 0.8821 (   737 PWs)   bands (ev):

    -3.6246   0.3419   2.8651   4.2238

          k = 0.4980-0.2490 0.7560 (   732 PWs)   bands (ev):

    -2.9375  -0.6449   2.7142   4.0153

          k = 0.3735-0.1245 0.6300 (   732 PWs)   bands (ev):

    -3.5991   0.3193   2.8092   4.2825

          k = 0.2490 0.0000 0.5040 (   733 PWs)   bands (ev):

    -4.5102   1.9169   3.4060   4.7982

          k =-0.0000 0.4980 0.2520 (   735 PWs)   bands (ev):

    -4.5267   1.8954   3.4371   4.7874

          k = 0.7470-0.2490 1.0081 (   732 PWs)   bands (ev):

    -3.2491   0.2191   2.8197   3.4002

          k = 0.6225-0.1245 0.8821 (   731 PWs)   bands (ev):

    -2.3436  -0.7617   2.0595   3.2188

          k = 0.4980-0.0000 0.7560 (   733 PWs)   bands (ev):

    -2.6793  -0.4009   1.8575   3.6218

          k =-0.8715-0.3735-0.6300 (   735 PWs)   bands (ev):

    -3.6183   0.3147   2.8079   4.2661

          k =-0.9960-0.2490-0.7560 (   733 PWs)   bands (ev):

    -3.2467   0.2043   2.7839   3.4103

          k =-0.2490-0.9960-0.0000 (   730 PWs)   bands (ev):

    -1.5912  -1.5912   2.7516   2.7516

          k =-0.7470-0.2490-0.5040 (   730 PWs)   bands (ev):

    -2.9444  -0.6573   2.6722   4.0320

          k =-0.8715-0.1245-0.6300 (   728 PWs)   bands (ev):

    -2.3477  -0.7776   2.0466   3.1959

          k = 0.0000-0.9960 0.2520 (   742 PWs)   bands (ev):

    -1.5946  -1.5946   2.7330   2.7330

          k =-0.7470 0.0000-0.5040 (   727 PWs)   bands (ev):

    -2.6991  -0.4114   1.8701   3.5793

          k = 0.0000 0.0000 0.5040 (   729 PWs)   bands (ev):

    -4.7607   2.7599   4.2532   4.2532

          k = 0.4980-0.4980 1.0081 (   742 PWs)   bands (ev):

    -3.8025   0.7310   2.4173   4.8181

          k = 0.3735-0.3735 0.8821 (   730 PWs)   bands (ev):

    -2.8925  -0.4621   2.1772   4.2460

          k = 0.2490-0.2490 0.7560 (   731 PWs)   bands (ev):

    -3.0810  -0.2125   2.6382   3.9233

          k = 0.1245-0.1245 0.6300 (   734 PWs)   bands (ev):

    -4.0305   1.2856   3.4865   3.9240

          k = 0.4980-0.2490 1.0081 (   732 PWs)   bands (ev):

    -2.7015  -0.3640   1.9165   3.5377

          k = 0.3735-0.1245 0.8821 (   729 PWs)   bands (ev):

    -2.3159  -0.7408   2.0578   3.1625

          k = 0.2490-0.0000 0.7560 (   731 PWs)   bands (ev):

    -3.2069   0.2566   2.7347   3.3912

          k =-0.4980-0.9960 0.0000 (   734 PWs)   bands (ev):

    -1.4728  -1.4728   2.2672   2.2672

          k = 0.0000-0.9960 0.5040 (   732 PWs)   bands (ev):

    -1.4973  -1.4973   2.2599   2.2599

          k =-0.0000-0.0000 0.7560 (   733 PWs)   bands (ev):

    -3.4076   0.5072   3.5147   3.5147

          k = 0.2490-0.2490 1.0081 (   738 PWs)   bands (ev):

    -2.0516  -1.0178   1.8073   3.6957

          k = 0.1245-0.1245 0.8821 (   739 PWs)   bands (ev):

    -2.4863  -0.6066   2.6702   3.4346

          k =-0.7470-0.9960 0.0000 (   734 PWs)   bands (ev):

    -1.5357  -1.5357   2.6854   2.6854

          k = 0.0000 0.0000-1.0081 (   740 PWs)   bands (ev):

    -1.6088  -1.6088   3.2615   3.2615

     highest occupied level (ev):     6.2895

!    total energy              =     -19.26013364 Ry
     estimated scf accuracy    <          3.0E-09 Ry

     The total energy is the sum of the following terms:
     one-electron contribution =       5.20735076 Ry
     hartree contribution      =       1.09649895 Ry
     xc contribution           =      -8.64699486 Ry
     ewald contribution        =     -16.91698848 Ry

     convergence has been achieved in   6 iterations

     Forces acting on atoms (cartesian axes, Ry/au):

     atom    1 type  1   force =     0.00000000    0.00000000    0.00000000
     atom    2 type  1   force =     0.00000000    0.00000000    0.00000000

     Total force =     0.000000     Total SCF correction =     0.000000


     Computing stress (Cartesian axis) and pressure

          total   stress  (Ry/bohr**3)                   (kbar)     P=        4.42
   0.00000424   0.00000000   0.00000000            0.62        0.00        0.00
   0.00000000   0.00000424   0.00000000            0.00        0.62        0.00
  -0.00000000  -0.00000000   0.00008168           -0.00       -0.00       12.01


     BFGS Geometry Optimization
     Energy error            =      0.0E+00 Ry
     Gradient error          =      0.0E+00 Ry/Bohr

     bfgs converged in   1 scf cycles and   0 bfgs steps
     (criteria: energy <  1.0E-04 Ry, force <  1.0E-03 Ry/Bohr)

     End of BFGS Geometry Optimization

     Final energy             =     -19.2601336407 Ry
Begin final coordinates

ATOMIC_POSITIONS (crystal)
Si            0.0000000000        0.0000000000        0.0000000000
Si            0.2500000000        0.2500000000        0.2500000000
End final coordinates



     Writing all to output data dir ./Si_elastic_isotropic.save/
 
     init_run     :      1.65s CPU      1.72s WALL (       1 calls)
     electrons    :     12.62s CPU     14.37s WALL (       1 calls)
     forces       :      0.33s CPU      0.35s WALL (       1 calls)
     stress       :      2.08s CPU      2.11s WALL (       1 calls)

     Called by init_run:
     wfcinit      :      0.64s CPU      0.66s WALL (       1 calls)
     potinit      :      0.03s CPU      0.04s WALL (       1 calls)
     hinit0       :      0.82s CPU      0.84s WALL (       1 calls)

     Called by electrons:
     c_bands      :      9.44s CPU     10.96s WALL (       7 calls)
     sum_band     :      2.31s CPU      2.45s WALL (       7 calls)
     v_of_rho     :      0.11s CPU      0.11s WALL (       7 calls)
     newd         :      0.85s CPU      0.92s WALL (       7 calls)
     mix_rho      :      0.02s CPU      0.03s WALL (       7 calls)

     Called by c_bands:
     init_us_2    :      0.74s CPU      0.83s WALL (    1003 calls)
     init_us_2:cp :      0.71s CPU      0.81s WALL (    1003 calls)
     ccgdiagg     :      7.55s CPU      8.28s WALL (     413 calls)
     wfcrot       :      1.97s CPU      2.07s WALL (     354 calls)

     Called by *cgdiagg:
     h_psi        :      7.69s CPU      8.30s WALL (    5305 calls)
     s_psi        :      0.59s CPU      0.68s WALL (   10256 calls)

     Called by h_psi:
     h_psi:calbec :      0.65s CPU      0.70s WALL (    5305 calls)
     vloc_psi     :      6.36s CPU      6.87s WALL (    5305 calls)
     add_vuspsi   :      0.40s CPU      0.45s WALL (    5305 calls)
     hs_1psi      :      6.48s CPU      7.07s WALL (    4951 calls)
     s_1psi       :      0.75s CPU      0.83s WALL (    4951 calls)

     General routines
     calbec       :      0.95s CPU      1.06s WALL (   10964 calls)
     fft          :      0.06s CPU      0.07s WALL (      49 calls)
     ffts         :      0.01s CPU      0.01s WALL (      14 calls)
     fftw         :      5.60s CPU      6.02s WALL (   14858 calls)
     interpolate  :      0.02s CPU      0.02s WALL (       7 calls)
 
     Parallel routines
 
     PWSCF        :     17.20s CPU     19.63s WALL

 
   This run was terminated on:   0:37:27  15Mar2022            

=------------------------------------------------------------------------------=
   JOB DONE.
=------------------------------------------------------------------------------=
