
     Program PWSCF v.7.0 starts on 13Mar2022 at 10:32:55 

     This program is part of the open-source Quantum ESPRESSO suite
     for quantum simulation of materials; please cite
         "P. Giannozzi et al., J. Phys.:Condens. Matter 21 395502 (2009);
         "P. Giannozzi et al., J. Phys.:Condens. Matter 29 465901 (2017);
         "P. Giannozzi et al., J. Chem. Phys. 152 154105 (2020);
          URL http://www.quantum-espresso.org", 
     in publications or presentations arising from this work. More details at
     http://www.quantum-espresso.org/quote

     Parallel version (MPI), running on     1 processors

     MPI processes distributed on     1 nodes
     88676 MiB available memory on the printing compute node when the environment starts
 
     Waiting for input...
     Reading input from standard input
Warning: card &CELL ignored
Warning: card  CELL_DYNAMICS = 'BFGS', ignored
Warning: card  PRESS=0.1D0, ignored
Warning: card / ignored

     Current dimensions of program PWSCF are:
     Max number of different atomic species (ntypx) = 10
     Max number of k-points (npk) =  40000
     Max angular momentum in pseudopotentials (lmaxx) =  4
     Message from routine setup:
     using ibrav=0 with symmetry is DISCOURAGED, use correct ibrav instead

     Subspace diagonalization in iterative solution of the eigenvalue problem:
     a serial algorithm will be used

 
     G-vector sticks info
     --------------------
     sticks:   dense  smooth     PW     G-vecs:    dense   smooth      PW
     Sum        2209     745    241                66989    12913    2331
 
     Using Slab Decomposition
 


     bravais-lattice index     =            0
     lattice parameter (alat)  =      10.2600  a.u.
     unit-cell volume          =     269.9984 (a.u.)^3
     number of atoms/cell      =            2
     number of atomic types    =            1
     number of electrons       =         8.00
     number of Kohn-Sham states=            4
     kinetic-energy cutoff     =      50.0000  Ry
     charge density cutoff     =     600.0000  Ry
     scf convergence threshold =      1.0E-08
     mixing beta               =       0.7000
     number of iterations used =            8  plain     mixing
     Exchange-correlation= SLA  PZ   NOGX NOGC
                           (   1   1   0   0   0   0   0)

     celldm(1)=  10.260000  celldm(2)=   0.000000  celldm(3)=   0.000000
     celldm(4)=   0.000000  celldm(5)=   0.000000  celldm(6)=   0.000000

     crystal axes: (cart. coord. in units of alat)
               a(1) = (  -0.502000   0.000000   0.502000 )  
               a(2) = (   0.000000   0.502000   0.502000 )  
               a(3) = (  -0.496000   0.496000   0.000000 )  

     reciprocal axes: (cart. coord. in units 2 pi/alat)
               b(1) = ( -0.996016 -0.996016  0.996016 )  
               b(2) = (  0.996016  0.996016  0.996016 )  
               b(3) = ( -1.008065  1.008065 -1.008065 )  


     PseudoPot. # 1 for Si read from file:
     ./Si_LDA.UPF
     MD5 check sum: b5ade7b37ee992b02096e360e546dc2d
     Pseudo is Ultrasoft + core correction, Zval =  4.0
     Generated by new atomic code, or converted to UPF format
     Using radial grid of  899 points,  6 beta functions with: 
                l(1) =   0
                l(2) =   0
                l(3) =   1
                l(4) =   1
                l(5) =   2
                l(6) =   2
     Q(r) pseudized with  8 coefficients,  rinner =    0.900   0.900   0.900
                                                       0.900   0.900

     atomic species   valence    mass     pseudopotential
        Si             4.00    28.08550     Si( 1.00)

      4 Sym. Ops., with inversion, found ( 2 have fractional translation)



   Cartesian axes

     site n.     atom                  positions (alat units)
         1           Si  tau(   1) = (   0.0000000   0.0000000   0.0000000  )
         2           Si  tau(   2) = (  -0.2495000   0.2495000   0.2510000  )

     number of k points=   282

     Number of k-points >= 100: set verbosity='high' to print them.

     Dense  grid:    66989 G-vectors     FFT dimensions: (  60,  60,  60)

     Smooth grid:    12913 G-vectors     FFT dimensions: (  36,  36,  36)

     Estimated max dynamical RAM per process >     278.42 MB

     Initial potential from superposition of free atoms

     starting charge       7.9988, renormalised to       8.0000
     Starting wfcs are    8 randomized atomic wfcs

     total cpu time spent up to now is       10.2 secs

     Self-consistent Calculation

     iteration #  1     ecut=    50.00 Ry     beta= 0.70
     CG style diagonalization
     ethr =  1.00E-02,  avg # of iterations =  3.0

     Threshold (ethr) on eigenvalues was too large:
     Diagonalizing with lowered threshold

     CG style diagonalization
     ethr =  7.15E-04,  avg # of iterations =  2.0

     total cpu time spent up to now is       37.8 secs

     total energy              =     -19.25674305 Ry
     estimated scf accuracy    <       0.05765482 Ry

     iteration #  2     ecut=    50.00 Ry     beta= 0.70
     CG style diagonalization
     ethr =  7.21E-04,  avg # of iterations =  3.0

     total cpu time spent up to now is       53.0 secs

     total energy              =     -19.25953998 Ry
     estimated scf accuracy    <       0.00197280 Ry

     iteration #  3     ecut=    50.00 Ry     beta= 0.70
     CG style diagonalization
     ethr =  2.47E-05,  avg # of iterations =  4.1

     total cpu time spent up to now is       72.8 secs

     total energy              =     -19.26010671 Ry
     estimated scf accuracy    <       0.00006703 Ry

     iteration #  4     ecut=    50.00 Ry     beta= 0.70
     CG style diagonalization
     ethr =  8.38E-07,  avg # of iterations =  4.3

     total cpu time spent up to now is       93.2 secs

     total energy              =     -19.26014243 Ry
     estimated scf accuracy    <       0.00001418 Ry

     iteration #  5     ecut=    50.00 Ry     beta= 0.70
     CG style diagonalization
     ethr =  1.77E-07,  avg # of iterations =  3.9

     total cpu time spent up to now is      112.1 secs

     total energy              =     -19.26014519 Ry
     estimated scf accuracy    <       0.00000002 Ry

     iteration #  6     ecut=    50.00 Ry     beta= 0.70
     CG style diagonalization
     ethr =  2.37E-10,  avg # of iterations =  6.4

     total cpu time spent up to now is      140.8 secs

     End of self-consistent calculation

     Number of k-points >= 100: set verbosity='high' to print the bands.

     highest occupied level (ev):     6.0454

!    total energy              =     -19.26014538 Ry
     estimated scf accuracy    <          4.8E-09 Ry

     The total energy is the sum of the following terms:
     one-electron contribution =       5.04765276 Ry
     hartree contribution      =       1.11398021 Ry
     xc contribution           =      -8.62116696 Ry
     ewald contribution        =     -16.80061138 Ry

     convergence has been achieved in   6 iterations

     Forces acting on atoms (cartesian axes, Ry/au):

     atom    1 type  1   force =    -0.00228129    0.00228129   -0.00441054
     atom    2 type  1   force =     0.00228129   -0.00228129    0.00441054

     Total force =     0.007728     Total SCF correction =     0.000002


     Computing stress (Cartesian axis) and pressure

          total   stress  (Ry/bohr**3)                   (kbar)     P=      -14.80
  -0.00008741  -0.00008287   0.00004219          -12.86      -12.19        6.21
  -0.00008287  -0.00008741  -0.00004219          -12.19      -12.86       -6.21
   0.00004219  -0.00004219  -0.00012694            6.21       -6.21      -18.67


     Writing all to output data dir ./Si_elastic_tetra.save/
 
     init_run     :      9.28s CPU      9.60s WALL (       1 calls)
     electrons    :    120.14s CPU    130.65s WALL (       1 calls)
     forces       :      2.19s CPU      2.29s WALL (       1 calls)
     stress       :     12.37s CPU     12.55s WALL (       1 calls)

     Called by init_run:
     wfcinit      :      6.94s CPU      7.18s WALL (       1 calls)
     potinit      :      0.18s CPU      0.20s WALL (       1 calls)
     hinit0       :      1.53s CPU      1.55s WALL (       1 calls)

     Called by electrons:
     c_bands      :    100.42s CPU    109.84s WALL (       7 calls)
     sum_band     :     16.77s CPU     17.53s WALL (       7 calls)
     v_of_rho     :      0.36s CPU      0.41s WALL (       7 calls)
     newd         :      2.92s CPU      3.20s WALL (       7 calls)
     mix_rho      :      0.07s CPU      0.08s WALL (       7 calls)

     Called by c_bands:
     init_us_2    :      7.93s CPU      8.41s WALL (    4794 calls)
     init_us_2:cp :      7.80s CPU      8.33s WALL (    4794 calls)
     ccgdiagg     :     81.01s CPU     86.51s WALL (    1974 calls)
     wfcrot       :     21.08s CPU     21.91s WALL (    1692 calls)

     Called by *cgdiagg:
     h_psi        :     83.87s CPU     88.00s WALL (   26249 calls)
     s_psi        :      7.82s CPU      9.09s WALL (   50806 calls)

     Called by h_psi:
     h_psi:calbec :      5.60s CPU      5.86s WALL (   26249 calls)
     vloc_psi     :     71.93s CPU     75.31s WALL (   26249 calls)
     add_vuspsi   :      4.65s CPU      5.19s WALL (   26249 calls)
     hs_1psi      :     69.86s CPU     73.84s WALL (   24557 calls)
     s_1psi       :      8.45s CPU      9.49s WALL (   24557 calls)

     General routines
     calbec       :      9.43s CPU     10.66s WALL (   54190 calls)
     fft          :      0.21s CPU      0.22s WALL (      49 calls)
     ffts         :      0.02s CPU      0.02s WALL (      14 calls)
     fftw         :     67.90s CPU     70.99s WALL (   72802 calls)
     interpolate  :      0.05s CPU      0.06s WALL (       7 calls)
 
     Parallel routines
 
     PWSCF        :   2m24.77s CPU   2m37.83s WALL

 
   This run was terminated on:  10:35:33  13Mar2022            

=------------------------------------------------------------------------------=
   JOB DONE.
=------------------------------------------------------------------------------=
