
     Program PWSCF v.7.0 starts on 17Feb2022 at 18: 1:53 

     This program is part of the open-source Quantum ESPRESSO suite
     for quantum simulation of materials; please cite
         "P. Giannozzi et al., J. Phys.:Condens. Matter 21 395502 (2009);
         "P. Giannozzi et al., J. Phys.:Condens. Matter 29 465901 (2017);
         "P. Giannozzi et al., J. Chem. Phys. 152 154105 (2020);
          URL http://www.quantum-espresso.org", 
     in publications or presentations arising from this work. More details at
     http://www.quantum-espresso.org/quote

     Parallel version (MPI), running on     1 processors

     MPI processes distributed on     1 nodes
     88204 MiB available memory on the printing compute node when the environment starts
 
     Waiting for input...
     Reading input from standard input
Warning: card &CELL ignored
Warning: card  CELL_DYNAMICS = 'BFGS', ignored
Warning: card  PRESS=0.1D0, ignored
Warning: card / ignored

     Current dimensions of program PWSCF are:
     Max number of different atomic species (ntypx) = 10
     Max number of k-points (npk) =  40000
     Max angular momentum in pseudopotentials (lmaxx) =  4

     Subspace diagonalization in iterative solution of the eigenvalue problem:
     a serial algorithm will be used

 
     G-vector sticks info
     --------------------
     sticks:   dense  smooth     PW     G-vecs:    dense   smooth      PW
     Sum        3343    1123    313               128013    24693    3839
 
     Using Slab Decomposition
 


     bravais-lattice index     =            2
     lattice parameter (alat)  =       9.0000  a.u.
     unit-cell volume          =     182.2500 (a.u.)^3
     number of atoms/cell      =            2
     number of atomic types    =            2
     number of electrons       =         8.00
     number of Kohn-Sham states=            4
     kinetic-energy cutoff     =     100.0000  Ry
     charge density cutoff     =    1200.0000  Ry
     scf convergence threshold =      1.0E-08
     mixing beta               =       0.7000
     number of iterations used =            8  plain     mixing
     Exchange-correlation= SLA  PZ   NOGX NOGC
                           (   1   1   0   0   0   0   0)

     celldm(1)=   9.000000  celldm(2)=   0.000000  celldm(3)=   0.000000
     celldm(4)=   0.000000  celldm(5)=   0.000000  celldm(6)=   0.000000

     crystal axes: (cart. coord. in units of alat)
               a(1) = (  -0.500000   0.000000   0.500000 )  
               a(2) = (   0.000000   0.500000   0.500000 )  
               a(3) = (  -0.500000   0.500000   0.000000 )  

     reciprocal axes: (cart. coord. in units 2 pi/alat)
               b(1) = ( -1.000000 -1.000000  1.000000 )  
               b(2) = (  1.000000  1.000000  1.000000 )  
               b(3) = ( -1.000000  1.000000 -1.000000 )  


     PseudoPot. # 1 for B  read from file:
     ./pseudo_dir/B_LDA.UPF
     MD5 check sum: a9970de764dbc07c3a3d9583c605c3b2
     Pseudo is Ultrasoft + core correction, Zval =  3.0
     Generated by new atomic code, or converted to UPF format
     Using radial grid of  781 points,  4 beta functions with: 
                l(1) =   0
                l(2) =   0
                l(3) =   1
                l(4) =   1
     Q(r) pseudized with  8 coefficients,  rinner =    1.100   1.100   1.100


     PseudoPot. # 2 for As read from file:
     ./pseudo_dir/As_LDA.UPF
     MD5 check sum: 6d2e8cbe4ed9d0db7c6ef7a361cc050d
     Pseudo is Ultrasoft + core correction, Zval =  5.0
     Generated by new atomic code, or converted to UPF format
     Using radial grid of  875 points,  6 beta functions with: 
                l(1) =   0
                l(2) =   0
                l(3) =   1
                l(4) =   1
                l(5) =   2
                l(6) =   2
     Q(r) pseudized with  8 coefficients,  rinner =    1.300   1.300   1.300
                                                       1.300   1.300

     atomic species   valence    mass     pseudopotential
        B              3.00    10.81100     B ( 1.00)
        As             5.00    74.92160     As( 1.00)

      2 Sym. Ops. (no inversion) found



   Cartesian axes

     site n.     atom                  positions (alat units)
         1           B   tau(   1) = (   0.0000000   0.0000000   0.0000000  )
         2           As  tau(   2) = (  -0.2750000   0.2750000   0.2500000  )

     number of k points=    68
                       cart. coord. in units 2pi/alat
        k(    1) = (   0.0000000   0.0000000   0.0000000), wk =   0.0092593
        k(    2) = (  -0.1666667   0.1666667  -0.1666667), wk =   0.0185185
        k(    3) = (  -0.3333333   0.3333333  -0.3333333), wk =   0.0185185
        k(    4) = (   0.5000000  -0.5000000   0.5000000), wk =   0.0092593
        k(    5) = (   0.0000000   0.3333333   0.0000000), wk =   0.0370370
        k(    6) = (  -0.1666667   0.5000000  -0.1666667), wk =   0.0370370
        k(    7) = (   0.6666667  -0.3333333   0.6666667), wk =   0.0370370
        k(    8) = (   0.5000000  -0.1666667   0.5000000), wk =   0.0370370
        k(    9) = (   0.3333333  -0.0000000   0.3333333), wk =   0.0370370
        k(   10) = (   0.0000000   0.6666667   0.0000000), wk =   0.0370370
        k(   11) = (   0.8333333  -0.1666667   0.8333333), wk =   0.0370370
        k(   12) = (   0.6666667  -0.0000000   0.6666667), wk =   0.0370370
        k(   13) = (   0.0000000  -1.0000000   0.0000000), wk =   0.0185185
        k(   14) = (   0.6666667  -0.3333333   1.0000000), wk =   0.0370370
        k(   15) = (   0.5000000  -0.1666667   0.8333333), wk =   0.0370370
        k(   16) = (  -0.3333333  -1.0000000   0.0000000), wk =   0.0370370
        k(   17) = (   0.1666667   0.1666667   0.1666667), wk =   0.0370370
        k(   18) = (  -0.1666667   0.1666667   0.1666667), wk =   0.0185185
        k(   19) = (   0.3333333   0.3333333   0.3333333), wk =   0.0370370
        k(   20) = (  -0.3333333   0.3333333   0.3333333), wk =   0.0185185
        k(   21) = (  -0.5000000  -0.5000000  -0.5000000), wk =   0.0185185
        k(   22) = (   0.5000000  -0.5000000  -0.5000000), wk =   0.0092593
        k(   23) = (   0.0000000   0.0000000   0.3333333), wk =   0.0185185
        k(   24) = (   0.1666667   0.5000000   0.1666667), wk =   0.0370370
        k(   25) = (  -0.1666667  -0.5000000   0.1666667), wk =   0.0370370
        k(   26) = (  -0.5000000   0.1666667   0.1666667), wk =   0.0370370
        k(   27) = (   0.1666667  -0.1666667   0.5000000), wk =   0.0185185
        k(   28) = (   0.1666667   0.1666667  -0.5000000), wk =   0.0370370
        k(   29) = (  -0.1666667   0.1666667   0.5000000), wk =   0.0185185
        k(   30) = (  -0.6666667  -0.3333333  -0.6666667), wk =   0.0370370
        k(   31) = (   0.6666667   0.3333333  -0.6666667), wk =   0.0370370
        k(   32) = (   0.3333333  -0.6666667  -0.6666667), wk =   0.0370370
        k(   33) = (  -0.6666667   0.6666667  -0.3333333), wk =   0.0185185
        k(   34) = (  -0.6666667  -0.6666667   0.3333333), wk =   0.0370370
        k(   35) = (   0.6666667  -0.6666667  -0.3333333), wk =   0.0185185
        k(   36) = (  -0.5000000  -0.1666667  -0.5000000), wk =   0.0370370
        k(   37) = (   0.5000000   0.1666667  -0.5000000), wk =   0.0370370
        k(   38) = (   0.1666667  -0.5000000  -0.5000000), wk =   0.0370370
        k(   39) = (  -0.5000000   0.5000000  -0.1666667), wk =   0.0185185
        k(   40) = (  -0.5000000  -0.5000000   0.1666667), wk =   0.0370370
        k(   41) = (   0.5000000  -0.5000000  -0.1666667), wk =   0.0185185
        k(   42) = (   0.3333333   0.0000000  -0.3333333), wk =   0.0370370
        k(   43) = (  -0.3333333   0.3333333  -0.0000000), wk =   0.0185185
        k(   44) = (  -0.3333333  -0.3333333   0.0000000), wk =   0.0185185
        k(   45) = (   0.0000000   0.0000000   0.6666667), wk =   0.0185185
        k(   46) = (  -0.8333333  -0.1666667  -0.8333333), wk =   0.0370370
        k(   47) = (   0.8333333   0.1666667  -0.8333333), wk =   0.0370370
        k(   48) = (   0.1666667  -0.8333333  -0.8333333), wk =   0.0370370
        k(   49) = (  -0.8333333   0.8333333  -0.1666667), wk =   0.0185185
        k(   50) = (  -0.8333333  -0.8333333   0.1666667), wk =   0.0370370
        k(   51) = (   0.8333333  -0.8333333  -0.1666667), wk =   0.0185185
        k(   52) = (   0.6666667   0.0000000  -0.6666667), wk =   0.0370370
        k(   53) = (  -0.6666667   0.6666667   0.0000000), wk =   0.0185185
        k(   54) = (  -0.6666667  -0.6666667   0.0000000), wk =   0.0185185
        k(   55) = (   0.0000000   0.0000000  -1.0000000), wk =   0.0092593
        k(   56) = (  -0.6666667  -0.3333333  -1.0000000), wk =   0.0370370
        k(   57) = (   1.0000000   0.3333333   0.6666667), wk =   0.0370370
        k(   58) = (  -1.0000000   0.3333333  -0.6666667), wk =   0.0370370
        k(   59) = (  -0.6666667   1.0000000  -0.3333333), wk =   0.0370370
        k(   60) = (  -0.6666667  -1.0000000   0.3333333), wk =   0.0370370
        k(   61) = (  -0.5000000  -0.1666667  -0.8333333), wk =   0.0370370
        k(   62) = (   0.5000000   0.1666667  -0.8333333), wk =   0.0370370
        k(   63) = (   0.1666667  -0.5000000  -0.8333333), wk =   0.0370370
        k(   64) = (   0.8333333   0.1666667   0.5000000), wk =   0.0370370
        k(   65) = (  -0.8333333   0.1666667  -0.5000000), wk =   0.0185185
        k(   66) = (   0.8333333  -0.1666667  -0.5000000), wk =   0.0185185
        k(   67) = (   0.0000000   1.0000000  -0.3333333), wk =   0.0370370
        k(   68) = (   0.3333333   0.0000000  -1.0000000), wk =   0.0370370

     Dense  grid:   128013 G-vectors     FFT dimensions: (  72,  72,  72)

     Smooth grid:    24693 G-vectors     FFT dimensions: (  45,  45,  45)

     Estimated max dynamical RAM per process >     494.33 MB

     Initial potential from superposition of free atoms

     starting charge       7.9996, renormalised to       8.0000
     Starting wfcs are    8 randomized atomic wfcs

     total cpu time spent up to now is        9.2 secs

     Self-consistent Calculation

     iteration #  1     ecut=   100.00 Ry     beta= 0.70
     CG style diagonalization
     ethr =  1.00E-02,  avg # of iterations =  2.7

     total cpu time spent up to now is       18.3 secs

     total energy              =     -46.12988088 Ry
     estimated scf accuracy    <       0.15094487 Ry

     iteration #  2     ecut=   100.00 Ry     beta= 0.70
     CG style diagonalization
     ethr =  1.89E-03,  avg # of iterations =  4.2

     total cpu time spent up to now is       30.2 secs

     total energy              =     -46.16426732 Ry
     estimated scf accuracy    <       0.04252414 Ry

     iteration #  3     ecut=   100.00 Ry     beta= 0.70
     CG style diagonalization
     ethr =  5.32E-04,  avg # of iterations =  4.1

     total cpu time spent up to now is       41.8 secs

     total energy              =     -46.17362490 Ry
     estimated scf accuracy    <       0.00040774 Ry

     iteration #  4     ecut=   100.00 Ry     beta= 0.70
     CG style diagonalization
     ethr =  5.10E-06,  avg # of iterations =  5.1

     total cpu time spent up to now is       55.6 secs

     total energy              =     -46.17400262 Ry
     estimated scf accuracy    <       0.00017138 Ry

     iteration #  5     ecut=   100.00 Ry     beta= 0.70
     CG style diagonalization
     ethr =  2.14E-06,  avg # of iterations =  4.2

     total cpu time spent up to now is       67.6 secs

     total energy              =     -46.17405382 Ry
     estimated scf accuracy    <       0.00001335 Ry

     iteration #  6     ecut=   100.00 Ry     beta= 0.70
     CG style diagonalization
     ethr =  1.67E-07,  avg # of iterations =  5.0

     total cpu time spent up to now is       81.3 secs

     total energy              =     -46.17406224 Ry
     estimated scf accuracy    <       0.00000021 Ry

     iteration #  7     ecut=   100.00 Ry     beta= 0.70
     CG style diagonalization
     ethr =  2.64E-09,  avg # of iterations =  6.6

     total cpu time spent up to now is       98.2 secs

     total energy              =     -46.17406317 Ry
     estimated scf accuracy    <       0.00000010 Ry

     iteration #  8     ecut=   100.00 Ry     beta= 0.70
     CG style diagonalization
     ethr =  1.20E-09,  avg # of iterations =  3.8

     total cpu time spent up to now is      109.3 secs

     total energy              =     -46.17406316 Ry
     estimated scf accuracy    <       0.00000005 Ry

     iteration #  9     ecut=   100.00 Ry     beta= 0.70
     CG style diagonalization
     ethr =  5.76E-10,  avg # of iterations =  3.2

     total cpu time spent up to now is      119.0 secs

     End of self-consistent calculation

          k = 0.0000 0.0000 0.0000 (  3119 PWs)   bands (ev):

    -7.0180   7.3308   8.5548   9.7015

          k =-0.1667 0.1667-0.1667 (  3077 PWs)   bands (ev):

    -6.5581   4.9023   7.6926   8.5128

          k =-0.3333 0.3333-0.3333 (  3046 PWs)   bands (ev):

    -5.2536   1.2776   6.7200   7.5097

          k = 0.5000-0.5000 0.5000 (  3100 PWs)   bands (ev):

    -3.9893  -0.8400   6.3718   7.1748

          k = 0.0000 0.3333 0.0000 (  3082 PWs)   bands (ev):

    -6.4137   5.7361   6.6322   7.2997

          k =-0.1667 0.5000-0.1667 (  3072 PWs)   bands (ev):

    -5.3840   2.5629   5.8046   6.3713

          k = 0.6667-0.3333 0.6667 (  3081 PWs)   bands (ev):

    -3.8684  -0.2145   4.7834   6.2143

          k = 0.5000-0.1667 0.5000 (  3069 PWs)   bands (ev):

    -4.3448   0.5026   4.4261   6.9568

          k = 0.3333-0.0000 0.3333 (  3064 PWs)   bands (ev):

    -5.8172   3.4017   5.2023   8.2783

          k = 0.0000 0.6667 0.0000 (  3090 PWs)   bands (ev):

    -4.6929   2.4939   4.7598   5.3033

          k = 0.8333-0.1667 0.8333 (  3082 PWs)   bands (ev):

    -3.3877   0.5839   3.3406   5.0706

          k = 0.6667-0.0000 0.6667 (  3100 PWs)   bands (ev):

    -3.1530   0.3637   2.2318   5.7589

          k = 0.0000-1.0000 0.0000 (  3058 PWs)   bands (ev):

    -2.9209   0.0355   4.1380   4.6369

          k = 0.6667-0.3333 1.0000 (  3071 PWs)   bands (ev):

    -4.2389   1.6555   3.6255   5.2511

          k = 0.5000-0.1667 0.8333 (  3090 PWs)   bands (ev):

    -3.1214  -0.0028   3.2984   4.6626

          k =-0.3333-1.0000 0.0000 (  3092 PWs)   bands (ev):

    -2.7995   0.3626   3.0920   3.6794

          k = 0.1667 0.1667 0.1667 (  3077 PWs)   bands (ev):

    -6.5659   5.3871   7.0998   8.6503

          k =-0.1667 0.1667 0.1667 (  3077 PWs)   bands (ev):

    -6.5739   5.9200   7.0248   7.9888

          k = 0.3333 0.3333 0.3333 (  3046 PWs)   bands (ev):

    -5.3058   1.6892   6.2570   7.7763

          k =-0.3333 0.3333 0.3333 (  3046 PWs)   bands (ev):

    -5.3557   2.1013   6.3115   7.2773

          k =-0.5000-0.5000-0.5000 (  3100 PWs)   bands (ev):

    -4.1707  -0.3334   5.9512   7.4869

          k = 0.5000-0.5000-0.5000 (  3100 PWs)   bands (ev):

    -4.3191   0.1417   6.0492   7.0175

          k = 0.0000 0.0000 0.3333 (  3082 PWs)   bands (ev):

    -6.4139   5.5698   6.7684   7.4065

          k = 0.1667 0.5000 0.1667 (  3072 PWs)   bands (ev):

    -5.4152   3.1532   5.1354   6.4247

          k =-0.1667-0.5000 0.1667 (  3072 PWs)   bands (ev):

    -5.3992   2.7987   5.4901   6.5744

          k =-0.5000 0.1667 0.1667 (  3072 PWs)   bands (ev):

    -5.4302   3.3382   5.4001   6.0165

          k = 0.1667-0.1667 0.5000 (  3072 PWs)   bands (ev):

    -5.3758   2.4151   5.8431   6.5987

          k = 0.1667 0.1667-0.5000 (  3072 PWs)   bands (ev):

    -5.4073   2.8989   5.4124   6.5230

          k =-0.1667 0.1667 0.5000 (  3072 PWs)   bands (ev):

    -5.4381   3.5504   5.0973   6.0646

          k =-0.6667-0.3333-0.6667 (  3081 PWs)   bands (ev):

    -4.0102   0.3144   4.2888   6.3869

          k = 0.6667 0.3333-0.6667 (  3081 PWs)   bands (ev):

    -4.0013   0.2076   5.0888   5.6681

          k = 0.3333-0.6667-0.6667 (  3081 PWs)   bands (ev):

    -4.1231   0.7185   4.6702   5.6880

          k =-0.6667 0.6667-0.3333 (  3081 PWs)   bands (ev):

    -3.8618  -0.2671   5.3163   5.7212

          k =-0.6667-0.6667 0.3333 (  3081 PWs)   bands (ev):

    -4.0049   0.2492   4.5484   6.2354

          k = 0.6667-0.6667-0.3333 (  3081 PWs)   bands (ev):

    -4.1261   0.7746   4.2654   6.0471

          k =-0.5000-0.1667-0.5000 (  3069 PWs)   bands (ev):

    -4.4108   0.8765   4.0566   7.1304

          k = 0.5000 0.1667-0.5000 (  3069 PWs)   bands (ev):

    -4.4654   1.0581   4.7191   6.0836

          k = 0.1667-0.5000-0.5000 (  3069 PWs)   bands (ev):

    -4.5234   1.4593   4.3056   6.1985

          k =-0.5000 0.5000-0.1667 (  3069 PWs)   bands (ev):

    -4.3742   0.5868   4.7803   6.4060

          k =-0.5000-0.5000 0.1667 (  3069 PWs)   bands (ev):

    -4.4387   0.9887   4.2203   6.8121

          k = 0.5000-0.5000-0.1667 (  3069 PWs)   bands (ev):

    -4.4978   1.3614   3.9855   6.7007

          k = 0.3333 0.0000-0.3333 (  3064 PWs)   bands (ev):

    -5.8527   4.3208   5.1050   7.0447

          k =-0.3333 0.3333-0.0000 (  3064 PWs)   bands (ev):

    -5.8351   3.7497   5.2521   7.6172

          k =-0.3333-0.3333 0.0000 (  3064 PWs)   bands (ev):

    -5.8349   3.9669   4.8777   7.8906

          k = 0.0000 0.0000 0.6667 (  3090 PWs)   bands (ev):

    -4.6920   2.3739   4.9965   5.2499

          k =-0.8333-0.1667-0.8333 (  3082 PWs)   bands (ev):

    -3.4541   0.9708   2.9632   5.1067

          k = 0.8333 0.1667-0.8333 (  3082 PWs)   bands (ev):

    -3.4395   0.7028   3.8465   4.5340

          k = 0.1667-0.8333-0.8333 (  3082 PWs)   bands (ev):

    -3.5008   1.0310   3.5164   4.5593

          k =-0.8333 0.8333-0.1667 (  3082 PWs)   bands (ev):

    -3.3727   0.4077   3.8638   4.7562

          k =-0.8333-0.8333 0.1667 (  3082 PWs)   bands (ev):

    -3.4408   0.7441   3.3846   4.9955

          k = 0.8333-0.8333-0.1667 (  3082 PWs)   bands (ev):

    -3.5018   1.0810   3.1887   4.8257

          k = 0.6667 0.0000-0.6667 (  3100 PWs)   bands (ev):

    -3.3431   0.9540   2.4520   5.0976

          k =-0.6667 0.6667 0.0000 (  3100 PWs)   bands (ev):

    -3.2475   0.5710   2.4352   5.4078

          k =-0.6667-0.6667 0.0000 (  3100 PWs)   bands (ev):

    -3.2516   0.6808   2.2294   5.6008

          k = 0.0000 0.0000-1.0000 (  3058 PWs)   bands (ev):

    -2.9033  -0.0608   4.3685   4.5466

          k =-0.6667-0.3333-1.0000 (  3071 PWs)   bands (ev):

    -4.2397   1.7632   3.3649   5.4488

          k = 1.0000 0.3333 0.6667 (  3071 PWs)   bands (ev):

    -4.2869   2.1584   3.4719   4.8794

          k =-1.0000 0.3333-0.6667 (  3071 PWs)   bands (ev):

    -4.1899   1.3512   3.5474   5.6691

          k =-0.6667 1.0000-0.3333 (  3071 PWs)   bands (ev):

    -4.1885   1.3020   3.5868   5.7122

          k =-0.6667-1.0000 0.3333 (  3071 PWs)   bands (ev):

    -4.2857   2.0577   3.5825   4.8950

          k =-0.5000-0.1667-0.8333 (  3090 PWs)   bands (ev):

    -3.2181   0.4620   2.6068   5.0556

          k = 0.5000 0.1667-0.8333 (  3090 PWs)   bands (ev):

    -3.2708   0.4702   3.3791   4.2557

          k = 0.1667-0.5000-0.8333 (  3090 PWs)   bands (ev):

    -3.3474   0.9336   2.7016   4.5520

          k = 0.8333 0.1667 0.5000 (  3090 PWs)   bands (ev):

    -3.2476   0.4856   2.9379   4.6607

          k =-0.8333 0.1667-0.5000 (  3090 PWs)   bands (ev):

    -3.0960   0.0094   2.9226   5.0296

          k = 0.8333-0.1667-0.5000 (  3090 PWs)   bands (ev):

    -3.3743   0.9614   3.1452   4.0691

          k = 0.0000 1.0000-0.3333 (  3092 PWs)   bands (ev):

    -2.8034   0.3928   3.0467   3.6895

          k = 0.3333 0.0000-1.0000 (  3092 PWs)   bands (ev):

    -2.7896   0.2899   3.2562   3.5966

     highest occupied level (ev):     9.7015

!    total energy              =     -46.17406316 Ry
     estimated scf accuracy    <          1.4E-09 Ry

     The total energy is the sum of the following terms:
     one-electron contribution =       6.68972499 Ry
     hartree contribution      =       1.24747452 Ry
     xc contribution           =     -34.15258547 Ry
     ewald contribution        =     -19.95867719 Ry

     convergence has been achieved in   9 iterations

     Forces acting on atoms (cartesian axes, Ry/au):

     atom    1 type  1   force =    -0.07832938    0.07832938   -0.02687408
     atom    2 type  2   force =     0.07832938   -0.07832938    0.02687408

     Total force =     0.161203     Total SCF correction =     0.000005


     Computing stress (Cartesian axis) and pressure

          total   stress  (Ry/bohr**3)                   (kbar)     P=        6.21
   0.00001207  -0.00015963   0.00036155            1.78      -23.48       53.19
  -0.00015963   0.00001207  -0.00036155          -23.48        1.78      -53.19
   0.00036155  -0.00036155   0.00010240           53.19      -53.19       15.06


     Writing all to output data dir ./z-100.save/
 
     init_run     :      7.35s CPU      7.82s WALL (       1 calls)
     electrons    :    104.88s CPU    109.86s WALL (       1 calls)
     forces       :      1.50s CPU      1.62s WALL (       1 calls)
     stress       :     12.29s CPU     12.66s WALL (       1 calls)

     Called by init_run:
     wfcinit      :      4.08s CPU      4.24s WALL (       1 calls)
     potinit      :      0.14s CPU      0.19s WALL (       1 calls)
     hinit0       :      2.19s CPU      2.30s WALL (       1 calls)

     Called by electrons:
     c_bands      :     78.84s CPU     81.92s WALL (       9 calls)
     sum_band     :     18.62s CPU     19.60s WALL (       9 calls)
     v_of_rho     :      0.97s CPU      1.02s WALL (      10 calls)
     newd         :      6.81s CPU      7.68s WALL (      10 calls)
     mix_rho      :      0.23s CPU      0.24s WALL (       9 calls)

     Called by c_bands:
     init_us_2    :      5.72s CPU      5.86s WALL (    1428 calls)
     init_us_2:cp :      5.67s CPU      5.84s WALL (    1428 calls)
     ccgdiagg     :     61.84s CPU     64.43s WALL (     612 calls)
     wfcrot       :     17.77s CPU     18.20s WALL (     612 calls)

     Called by *cgdiagg:
     h_psi        :     70.18s CPU     72.06s WALL (    8997 calls)
     s_psi        :      4.12s CPU      4.77s WALL (   17382 calls)

     Called by h_psi:
     h_psi:calbec :      2.58s CPU      2.73s WALL (    8997 calls)
     vloc_psi     :     64.49s CPU     65.96s WALL (    8997 calls)
     add_vuspsi   :      2.40s CPU      2.69s WALL (    8997 calls)
     hs_1psi      :     55.94s CPU     57.77s WALL (    8385 calls)
     s_1psi       :      4.27s CPU      4.75s WALL (    8385 calls)

     General routines
     calbec       :      4.48s CPU      5.07s WALL (   18334 calls)
     fft          :      0.51s CPU      0.53s WALL (      66 calls)
     ffts         :      0.05s CPU      0.05s WALL (      19 calls)
     fftw         :     61.89s CPU     63.00s WALL (   24658 calls)
     interpolate  :      0.12s CPU      0.15s WALL (      10 calls)
 
     Parallel routines
 
     PWSCF        :   2m 6.94s CPU   2m14.41s WALL

 
   This run was terminated on:  18: 4: 8  17Feb2022            

=------------------------------------------------------------------------------=
   JOB DONE.
=------------------------------------------------------------------------------=
