
     Program PWSCF v.7.0 starts on 17Feb2022 at 17:22:56 

     This program is part of the open-source Quantum ESPRESSO suite
     for quantum simulation of materials; please cite
         "P. Giannozzi et al., J. Phys.:Condens. Matter 21 395502 (2009);
         "P. Giannozzi et al., J. Phys.:Condens. Matter 29 465901 (2017);
         "P. Giannozzi et al., J. Chem. Phys. 152 154105 (2020);
          URL http://www.quantum-espresso.org", 
     in publications or presentations arising from this work. More details at
     http://www.quantum-espresso.org/quote

     Parallel version (MPI), running on     1 processors

     MPI processes distributed on     1 nodes
     91067 MiB available memory on the printing compute node when the environment starts
 
     Waiting for input...
     Reading input from standard input
Warning: card &CELL ignored
Warning: card  CELL_DYNAMICS = 'BFGS', ignored
Warning: card  PRESS=0.1D0, ignored
Warning: card / ignored

     Current dimensions of program PWSCF are:
     Max number of different atomic species (ntypx) = 10
     Max number of k-points (npk) =  40000
     Max angular momentum in pseudopotentials (lmaxx) =  4

     Subspace diagonalization in iterative solution of the eigenvalue problem:
     a serial algorithm will be used

 
     G-vector sticks info
     --------------------
     sticks:   dense  smooth     PW     G-vecs:    dense   smooth      PW
     Sum        1003     337    109                20875     4015     749
 
     Using Slab Decomposition
 


     bravais-lattice index     =            2
     lattice parameter (alat)  =       9.0000  a.u.
     unit-cell volume          =     182.2500 (a.u.)^3
     number of atoms/cell      =            2
     number of atomic types    =            2
     number of electrons       =         8.00
     number of Kohn-Sham states=            4
     kinetic-energy cutoff     =      30.0000  Ry
     charge density cutoff     =     360.0000  Ry
     scf convergence threshold =      1.0E-08
     mixing beta               =       0.7000
     number of iterations used =            8  plain     mixing
     Exchange-correlation= SLA  PZ   NOGX NOGC
                           (   1   1   0   0   0   0   0)

     celldm(1)=   9.000000  celldm(2)=   0.000000  celldm(3)=   0.000000
     celldm(4)=   0.000000  celldm(5)=   0.000000  celldm(6)=   0.000000

     crystal axes: (cart. coord. in units of alat)
               a(1) = (  -0.500000   0.000000   0.500000 )  
               a(2) = (   0.000000   0.500000   0.500000 )  
               a(3) = (  -0.500000   0.500000   0.000000 )  

     reciprocal axes: (cart. coord. in units 2 pi/alat)
               b(1) = ( -1.000000 -1.000000  1.000000 )  
               b(2) = (  1.000000  1.000000  1.000000 )  
               b(3) = ( -1.000000  1.000000 -1.000000 )  


     PseudoPot. # 1 for B  read from file:
     ./pseudo_dir/B_LDA.UPF
     MD5 check sum: a9970de764dbc07c3a3d9583c605c3b2
     Pseudo is Ultrasoft + core correction, Zval =  3.0
     Generated by new atomic code, or converted to UPF format
     Using radial grid of  781 points,  4 beta functions with: 
                l(1) =   0
                l(2) =   0
                l(3) =   1
                l(4) =   1
     Q(r) pseudized with  8 coefficients,  rinner =    1.100   1.100   1.100


     PseudoPot. # 2 for As read from file:
     ./pseudo_dir/As_LDA.UPF
     MD5 check sum: 6d2e8cbe4ed9d0db7c6ef7a361cc050d
     Pseudo is Ultrasoft + core correction, Zval =  5.0
     Generated by new atomic code, or converted to UPF format
     Using radial grid of  875 points,  6 beta functions with: 
                l(1) =   0
                l(2) =   0
                l(3) =   1
                l(4) =   1
                l(5) =   2
                l(6) =   2
     Q(r) pseudized with  8 coefficients,  rinner =    1.300   1.300   1.300
                                                       1.300   1.300

     atomic species   valence    mass     pseudopotential
        B              3.00    10.81100     B ( 1.00)
        As             5.00    74.92160     As( 1.00)

      2 Sym. Ops. (no inversion) found



   Cartesian axes

     site n.     atom                  positions (alat units)
         1           B   tau(   1) = (   0.0000000   0.0000000   0.0000000  )
         2           As  tau(   2) = (  -0.2750000   0.2750000   0.2500000  )

     number of k points=    68
                       cart. coord. in units 2pi/alat
        k(    1) = (   0.0000000   0.0000000   0.0000000), wk =   0.0092593
        k(    2) = (  -0.1666667   0.1666667  -0.1666667), wk =   0.0185185
        k(    3) = (  -0.3333333   0.3333333  -0.3333333), wk =   0.0185185
        k(    4) = (   0.5000000  -0.5000000   0.5000000), wk =   0.0092593
        k(    5) = (   0.0000000   0.3333333   0.0000000), wk =   0.0370370
        k(    6) = (  -0.1666667   0.5000000  -0.1666667), wk =   0.0370370
        k(    7) = (   0.6666667  -0.3333333   0.6666667), wk =   0.0370370
        k(    8) = (   0.5000000  -0.1666667   0.5000000), wk =   0.0370370
        k(    9) = (   0.3333333  -0.0000000   0.3333333), wk =   0.0370370
        k(   10) = (   0.0000000   0.6666667   0.0000000), wk =   0.0370370
        k(   11) = (   0.8333333  -0.1666667   0.8333333), wk =   0.0370370
        k(   12) = (   0.6666667  -0.0000000   0.6666667), wk =   0.0370370
        k(   13) = (   0.0000000  -1.0000000   0.0000000), wk =   0.0185185
        k(   14) = (   0.6666667  -0.3333333   1.0000000), wk =   0.0370370
        k(   15) = (   0.5000000  -0.1666667   0.8333333), wk =   0.0370370
        k(   16) = (  -0.3333333  -1.0000000   0.0000000), wk =   0.0370370
        k(   17) = (   0.1666667   0.1666667   0.1666667), wk =   0.0370370
        k(   18) = (  -0.1666667   0.1666667   0.1666667), wk =   0.0185185
        k(   19) = (   0.3333333   0.3333333   0.3333333), wk =   0.0370370
        k(   20) = (  -0.3333333   0.3333333   0.3333333), wk =   0.0185185
        k(   21) = (  -0.5000000  -0.5000000  -0.5000000), wk =   0.0185185
        k(   22) = (   0.5000000  -0.5000000  -0.5000000), wk =   0.0092593
        k(   23) = (   0.0000000   0.0000000   0.3333333), wk =   0.0185185
        k(   24) = (   0.1666667   0.5000000   0.1666667), wk =   0.0370370
        k(   25) = (  -0.1666667  -0.5000000   0.1666667), wk =   0.0370370
        k(   26) = (  -0.5000000   0.1666667   0.1666667), wk =   0.0370370
        k(   27) = (   0.1666667  -0.1666667   0.5000000), wk =   0.0185185
        k(   28) = (   0.1666667   0.1666667  -0.5000000), wk =   0.0370370
        k(   29) = (  -0.1666667   0.1666667   0.5000000), wk =   0.0185185
        k(   30) = (  -0.6666667  -0.3333333  -0.6666667), wk =   0.0370370
        k(   31) = (   0.6666667   0.3333333  -0.6666667), wk =   0.0370370
        k(   32) = (   0.3333333  -0.6666667  -0.6666667), wk =   0.0370370
        k(   33) = (  -0.6666667   0.6666667  -0.3333333), wk =   0.0185185
        k(   34) = (  -0.6666667  -0.6666667   0.3333333), wk =   0.0370370
        k(   35) = (   0.6666667  -0.6666667  -0.3333333), wk =   0.0185185
        k(   36) = (  -0.5000000  -0.1666667  -0.5000000), wk =   0.0370370
        k(   37) = (   0.5000000   0.1666667  -0.5000000), wk =   0.0370370
        k(   38) = (   0.1666667  -0.5000000  -0.5000000), wk =   0.0370370
        k(   39) = (  -0.5000000   0.5000000  -0.1666667), wk =   0.0185185
        k(   40) = (  -0.5000000  -0.5000000   0.1666667), wk =   0.0370370
        k(   41) = (   0.5000000  -0.5000000  -0.1666667), wk =   0.0185185
        k(   42) = (   0.3333333   0.0000000  -0.3333333), wk =   0.0370370
        k(   43) = (  -0.3333333   0.3333333  -0.0000000), wk =   0.0185185
        k(   44) = (  -0.3333333  -0.3333333   0.0000000), wk =   0.0185185
        k(   45) = (   0.0000000   0.0000000   0.6666667), wk =   0.0185185
        k(   46) = (  -0.8333333  -0.1666667  -0.8333333), wk =   0.0370370
        k(   47) = (   0.8333333   0.1666667  -0.8333333), wk =   0.0370370
        k(   48) = (   0.1666667  -0.8333333  -0.8333333), wk =   0.0370370
        k(   49) = (  -0.8333333   0.8333333  -0.1666667), wk =   0.0185185
        k(   50) = (  -0.8333333  -0.8333333   0.1666667), wk =   0.0370370
        k(   51) = (   0.8333333  -0.8333333  -0.1666667), wk =   0.0185185
        k(   52) = (   0.6666667   0.0000000  -0.6666667), wk =   0.0370370
        k(   53) = (  -0.6666667   0.6666667   0.0000000), wk =   0.0185185
        k(   54) = (  -0.6666667  -0.6666667   0.0000000), wk =   0.0185185
        k(   55) = (   0.0000000   0.0000000  -1.0000000), wk =   0.0092593
        k(   56) = (  -0.6666667  -0.3333333  -1.0000000), wk =   0.0370370
        k(   57) = (   1.0000000   0.3333333   0.6666667), wk =   0.0370370
        k(   58) = (  -1.0000000   0.3333333  -0.6666667), wk =   0.0370370
        k(   59) = (  -0.6666667   1.0000000  -0.3333333), wk =   0.0370370
        k(   60) = (  -0.6666667  -1.0000000   0.3333333), wk =   0.0370370
        k(   61) = (  -0.5000000  -0.1666667  -0.8333333), wk =   0.0370370
        k(   62) = (   0.5000000   0.1666667  -0.8333333), wk =   0.0370370
        k(   63) = (   0.1666667  -0.5000000  -0.8333333), wk =   0.0370370
        k(   64) = (   0.8333333   0.1666667   0.5000000), wk =   0.0370370
        k(   65) = (  -0.8333333   0.1666667  -0.5000000), wk =   0.0185185
        k(   66) = (   0.8333333  -0.1666667  -0.5000000), wk =   0.0185185
        k(   67) = (   0.0000000   1.0000000  -0.3333333), wk =   0.0370370
        k(   68) = (   0.3333333   0.0000000  -1.0000000), wk =   0.0370370

     Dense  grid:    20875 G-vectors     FFT dimensions: (  40,  40,  40)

     Smooth grid:     4015 G-vectors     FFT dimensions: (  24,  24,  24)

     Estimated max dynamical RAM per process >      82.98 MB

     Initial potential from superposition of free atoms

     starting charge       7.9996, renormalised to       8.0000
     Starting wfcs are    8 randomized atomic wfcs

     total cpu time spent up to now is        3.7 secs

     Self-consistent Calculation

     iteration #  1     ecut=    30.00 Ry     beta= 0.70
     CG style diagonalization
     ethr =  1.00E-02,  avg # of iterations =  2.7

     total cpu time spent up to now is        5.1 secs

     total energy              =     -46.12875788 Ry
     estimated scf accuracy    <       0.14913313 Ry

     iteration #  2     ecut=    30.00 Ry     beta= 0.70
     CG style diagonalization
     ethr =  1.86E-03,  avg # of iterations =  4.2

     total cpu time spent up to now is        6.9 secs

     total energy              =     -46.16234370 Ry
     estimated scf accuracy    <       0.04250152 Ry

     iteration #  3     ecut=    30.00 Ry     beta= 0.70
     CG style diagonalization
     ethr =  5.31E-04,  avg # of iterations =  4.1

     total cpu time spent up to now is        8.6 secs

     total energy              =     -46.17136884 Ry
     estimated scf accuracy    <       0.00043843 Ry

     iteration #  4     ecut=    30.00 Ry     beta= 0.70
     CG style diagonalization
     ethr =  5.48E-06,  avg # of iterations =  4.1

     total cpu time spent up to now is       10.4 secs

     total energy              =     -46.17156700 Ry
     estimated scf accuracy    <       0.00003578 Ry

     iteration #  5     ecut=    30.00 Ry     beta= 0.70
     CG style diagonalization
     ethr =  4.47E-07,  avg # of iterations =  4.0

     total cpu time spent up to now is       12.2 secs

     total energy              =     -46.17157600 Ry
     estimated scf accuracy    <       0.00000018 Ry

     iteration #  6     ecut=    30.00 Ry     beta= 0.70
     CG style diagonalization
     ethr =  2.27E-09,  avg # of iterations =  5.8

     total cpu time spent up to now is       14.5 secs

     total energy              =     -46.17157648 Ry
     estimated scf accuracy    <       0.00000001 Ry

     iteration #  7     ecut=    30.00 Ry     beta= 0.70
     CG style diagonalization
     ethr =  1.37E-10,  avg # of iterations =  4.2

     total cpu time spent up to now is       16.3 secs

     End of self-consistent calculation

          k = 0.0000 0.0000 0.0000 (   531 PWs)   bands (ev):

    -7.0158   7.3356   8.5601   9.7064

          k =-0.1667 0.1667-0.1667 (   519 PWs)   bands (ev):

    -6.5555   4.9076   7.6980   8.5181

          k =-0.3333 0.3333-0.3333 (   504 PWs)   bands (ev):

    -5.2501   1.2816   6.7260   7.5158

          k = 0.5000-0.5000 0.5000 (   502 PWs)   bands (ev):

    -3.9845  -0.8375   6.3780   7.1810

          k = 0.0000 0.3333 0.0000 (   516 PWs)   bands (ev):

    -6.4111   5.7412   6.6377   7.3051

          k =-0.1667 0.5000-0.1667 (   503 PWs)   bands (ev):

    -5.3807   2.5677   5.8103   6.3772

          k = 0.6667-0.3333 0.6667 (   508 PWs)   bands (ev):

    -3.8638  -0.2117   4.7883   6.2197

          k = 0.5000-0.1667 0.5000 (   507 PWs)   bands (ev):

    -4.3408   0.5060   4.4309   6.9626

          k = 0.3333-0.0000 0.3333 (   503 PWs)   bands (ev):

    -5.8140   3.4067   5.2079   8.2847

          k = 0.0000 0.6667 0.0000 (   500 PWs)   bands (ev):

    -4.6892   2.4985   4.7653   5.3088

          k = 0.8333-0.1667 0.8333 (   503 PWs)   bands (ev):

    -3.3829   0.5872   3.3451   5.0760

          k = 0.6667-0.0000 0.6667 (   506 PWs)   bands (ev):

    -3.1479   0.3665   2.2359   5.7642

          k = 0.0000-1.0000 0.0000 (   492 PWs)   bands (ev):

    -2.9152   0.0385   4.1434   4.6424

          k = 0.6667-0.3333 1.0000 (   501 PWs)   bands (ev):

    -4.2350   1.6598   3.6303   5.2565

          k = 0.5000-0.1667 0.8333 (   500 PWs)   bands (ev):

    -3.1161  -0.0002   3.3032   4.6679

          k =-0.3333-1.0000 0.0000 (   506 PWs)   bands (ev):

    -2.7939   0.3652   3.0962   3.6839

          k = 0.1667 0.1667 0.1667 (   519 PWs)   bands (ev):

    -6.5634   5.3924   7.1051   8.6557

          k =-0.1667 0.1667 0.1667 (   519 PWs)   bands (ev):

    -6.5713   5.9253   7.0301   7.9943

          k = 0.3333 0.3333 0.3333 (   504 PWs)   bands (ev):

    -5.3024   1.6935   6.2628   7.7825

          k =-0.3333 0.3333 0.3333 (   504 PWs)   bands (ev):

    -5.3523   2.1056   6.3174   7.2834

          k =-0.5000-0.5000-0.5000 (   502 PWs)   bands (ev):

    -4.1662  -0.3304   5.9571   7.4934

          k = 0.5000-0.5000-0.5000 (   502 PWs)   bands (ev):

    -4.3148   0.1449   6.0551   7.0239

          k = 0.0000 0.0000 0.3333 (   516 PWs)   bands (ev):

    -6.4113   5.5750   6.7737   7.4121

          k = 0.1667 0.5000 0.1667 (   503 PWs)   bands (ev):

    -5.4120   3.1582   5.1407   6.4307

          k =-0.1667-0.5000 0.1667 (   503 PWs)   bands (ev):

    -5.3960   2.8036   5.4957   6.5802

          k =-0.5000 0.1667 0.1667 (   503 PWs)   bands (ev):

    -5.4270   3.3431   5.4057   6.0224

          k = 0.1667-0.1667 0.5000 (   503 PWs)   bands (ev):

    -5.3725   2.4198   5.8490   6.6044

          k = 0.1667 0.1667-0.5000 (   503 PWs)   bands (ev):

    -5.4041   2.9038   5.4179   6.5290

          k =-0.1667 0.1667 0.5000 (   503 PWs)   bands (ev):

    -5.4349   3.5554   5.1025   6.0705

          k =-0.6667-0.3333-0.6667 (   508 PWs)   bands (ev):

    -4.0058   0.3177   4.2935   6.3925

          k = 0.6667 0.3333-0.6667 (   508 PWs)   bands (ev):

    -3.9968   0.2108   5.0938   5.6735

          k = 0.3333-0.6667-0.6667 (   508 PWs)   bands (ev):

    -4.1189   0.7220   4.6751   5.6934

          k =-0.6667 0.6667-0.3333 (   508 PWs)   bands (ev):

    -3.8571  -0.2643   5.3213   5.7266

          k =-0.6667-0.6667 0.3333 (   508 PWs)   bands (ev):

    -4.0004   0.2524   4.5532   6.2409

          k = 0.6667-0.6667-0.3333 (   508 PWs)   bands (ev):

    -4.1219   0.7782   4.2700   6.0526

          k =-0.5000-0.1667-0.5000 (   507 PWs)   bands (ev):

    -4.4068   0.8802   4.0613   7.1362

          k = 0.5000 0.1667-0.5000 (   507 PWs)   bands (ev):

    -4.4615   1.0620   4.7239   6.0892

          k = 0.1667-0.5000-0.5000 (   507 PWs)   bands (ev):

    -4.5196   1.4633   4.3104   6.2042

          k =-0.5000 0.5000-0.1667 (   507 PWs)   bands (ev):

    -4.3701   0.5902   4.7851   6.4118

          k =-0.5000-0.5000 0.1667 (   507 PWs)   bands (ev):

    -4.4347   0.9925   4.2251   6.8179

          k = 0.5000-0.5000-0.1667 (   507 PWs)   bands (ev):

    -4.4940   1.3653   3.9902   6.7066

          k = 0.3333 0.0000-0.3333 (   503 PWs)   bands (ev):

    -5.8496   4.3261   5.1103   7.0509

          k =-0.3333 0.3333-0.0000 (   503 PWs)   bands (ev):

    -5.8320   3.7549   5.2576   7.6236

          k =-0.3333-0.3333 0.0000 (   503 PWs)   bands (ev):

    -5.8318   3.9722   4.8831   7.8969

          k = 0.0000 0.0000 0.6667 (   500 PWs)   bands (ev):

    -4.6883   2.3785   5.0020   5.2554

          k =-0.8333-0.1667-0.8333 (   503 PWs)   bands (ev):

    -3.4494   0.9745   2.9675   5.1120

          k = 0.8333 0.1667-0.8333 (   503 PWs)   bands (ev):

    -3.4348   0.7061   3.8511   4.5391

          k = 0.1667-0.8333-0.8333 (   503 PWs)   bands (ev):

    -3.4962   1.0347   3.5209   4.5644

          k =-0.8333 0.8333-0.1667 (   503 PWs)   bands (ev):

    -3.3679   0.4108   3.8684   4.7616

          k =-0.8333-0.8333 0.1667 (   503 PWs)   bands (ev):

    -3.4360   0.7476   3.3891   5.0007

          k = 0.8333-0.8333-0.1667 (   503 PWs)   bands (ev):

    -3.4972   1.0847   3.1931   4.8309

          k = 0.6667 0.0000-0.6667 (   506 PWs)   bands (ev):

    -3.3383   0.9576   2.4561   5.1028

          k =-0.6667 0.6667 0.0000 (   506 PWs)   bands (ev):

    -3.2426   0.5741   2.4393   5.4131

          k =-0.6667-0.6667 0.0000 (   506 PWs)   bands (ev):

    -3.2467   0.6841   2.2334   5.6060

          k = 0.0000 0.0000-1.0000 (   492 PWs)   bands (ev):

    -2.8975  -0.0580   4.3740   4.5520

          k =-0.6667-0.3333-1.0000 (   501 PWs)   bands (ev):

    -4.2357   1.7677   3.3696   5.4540

          k = 1.0000 0.3333 0.6667 (   501 PWs)   bands (ev):

    -4.2830   2.1631   3.4766   4.8845

          k =-1.0000 0.3333-0.6667 (   501 PWs)   bands (ev):

    -4.1858   1.3554   3.5523   5.6744

          k =-0.6667 1.0000-0.3333 (   501 PWs)   bands (ev):

    -4.1844   1.3062   3.5917   5.7176

          k =-0.6667-1.0000 0.3333 (   501 PWs)   bands (ev):

    -4.2818   2.0623   3.5872   4.9001

          k =-0.5000-0.1667-0.8333 (   500 PWs)   bands (ev):

    -3.2130   0.4652   2.6112   5.0610

          k = 0.5000 0.1667-0.8333 (   500 PWs)   bands (ev):

    -3.2659   0.4734   3.3838   4.2606

          k = 0.1667-0.5000-0.8333 (   500 PWs)   bands (ev):

    -3.3426   0.9372   2.7059   4.5573

          k = 0.8333 0.1667 0.5000 (   500 PWs)   bands (ev):

    -3.2426   0.4888   2.9424   4.6660

          k =-0.8333 0.1667-0.5000 (   500 PWs)   bands (ev):

    -3.0906   0.0121   2.9273   5.0350

          k = 0.8333-0.1667-0.5000 (   500 PWs)   bands (ev):

    -3.3695   0.9650   3.1499   4.0741

          k = 0.0000 1.0000-0.3333 (   506 PWs)   bands (ev):

    -2.7979   0.3955   3.0509   3.6941

          k = 0.3333 0.0000-1.0000 (   506 PWs)   bands (ev):

    -2.7840   0.2924   3.2605   3.6011

     highest occupied level (ev):     9.7064

!    total energy              =     -46.17157649 Ry
     estimated scf accuracy    <          3.5E-10 Ry

     The total energy is the sum of the following terms:
     one-electron contribution =       6.69966368 Ry
     hartree contribution      =       1.24753021 Ry
     xc contribution           =     -34.16009318 Ry
     ewald contribution        =     -19.95867719 Ry

     convergence has been achieved in   7 iterations

     Forces acting on atoms (cartesian axes, Ry/au):

     atom    1 type  1   force =    -0.07842408    0.07842408   -0.02703689
     atom    2 type  2   force =     0.07842408   -0.07842408    0.02703689

     Total force =     0.161441     Total SCF correction =     0.000003


     Computing stress (Cartesian axis) and pressure

          total   stress  (Ry/bohr**3)                   (kbar)     P=        1.00
  -0.00002338  -0.00016028   0.00036325           -3.44      -23.58       53.44
  -0.00016028  -0.00002338  -0.00036325          -23.58       -3.44      -53.44
   0.00036325  -0.00036325   0.00006724           53.44      -53.44        9.89


     Writing all to output data dir ./z-30.save/
 
     init_run     :      2.05s CPU      2.31s WALL (       1 calls)
     electrons    :     11.35s CPU     12.67s WALL (       1 calls)
     forces       :      0.25s CPU      0.28s WALL (       1 calls)
     stress       :      2.06s CPU      2.15s WALL (       1 calls)

     Called by init_run:
     wfcinit      :      0.56s CPU      0.64s WALL (       1 calls)
     potinit      :      0.03s CPU      0.04s WALL (       1 calls)
     hinit0       :      1.31s CPU      1.40s WALL (       1 calls)

     Called by electrons:
     c_bands      :      8.26s CPU      9.23s WALL (       7 calls)
     sum_band     :      2.14s CPU      2.30s WALL (       7 calls)
     v_of_rho     :      0.13s CPU      0.14s WALL (       8 calls)
     newd         :      0.89s CPU      1.02s WALL (       8 calls)
     mix_rho      :      0.03s CPU      0.03s WALL (       7 calls)

     Called by c_bands:
     init_us_2    :      0.74s CPU      0.83s WALL (    1156 calls)
     init_us_2:cp :      0.72s CPU      0.81s WALL (    1156 calls)
     ccgdiagg     :      6.46s CPU      7.22s WALL (     476 calls)
     wfcrot       :      1.85s CPU      2.00s WALL (     476 calls)

     Called by *cgdiagg:
     h_psi        :      6.53s CPU      7.19s WALL (    6753 calls)
     s_psi        :      0.47s CPU      0.54s WALL (   13030 calls)

     Called by h_psi:
     h_psi:calbec :      0.44s CPU      0.50s WALL (    6753 calls)
     vloc_psi     :      5.48s CPU      6.01s WALL (    6753 calls)
     add_vuspsi   :      0.29s CPU      0.32s WALL (    6753 calls)
     hs_1psi      :      5.50s CPU      6.12s WALL (    6277 calls)
     s_1psi       :      0.64s CPU      0.71s WALL (    6277 calls)

     General routines
     calbec       :      0.61s CPU      0.70s WALL (   13846 calls)
     fft          :      0.07s CPU      0.11s WALL (      54 calls)
     ffts         :      0.01s CPU      0.01s WALL (      15 calls)
     fftw         :      5.20s CPU      5.68s WALL (   18810 calls)
     interpolate  :      0.02s CPU      0.02s WALL (       8 calls)
 
     Parallel routines
 
     PWSCF        :     16.58s CPU     19.74s WALL

 
   This run was terminated on:  17:23:16  17Feb2022            

=------------------------------------------------------------------------------=
   JOB DONE.
=------------------------------------------------------------------------------=
