
     Program PWSCF v.7.0 starts on 17Feb2022 at 17:23:49 

     This program is part of the open-source Quantum ESPRESSO suite
     for quantum simulation of materials; please cite
         "P. Giannozzi et al., J. Phys.:Condens. Matter 21 395502 (2009);
         "P. Giannozzi et al., J. Phys.:Condens. Matter 29 465901 (2017);
         "P. Giannozzi et al., J. Chem. Phys. 152 154105 (2020);
          URL http://www.quantum-espresso.org", 
     in publications or presentations arising from this work. More details at
     http://www.quantum-espresso.org/quote

     Parallel version (MPI), running on     1 processors

     MPI processes distributed on     1 nodes
     91069 MiB available memory on the printing compute node when the environment starts
 
     Waiting for input...
     Reading input from standard input
Warning: card &CELL ignored
Warning: card  CELL_DYNAMICS = 'BFGS', ignored
Warning: card  PRESS=0.1D0, ignored
Warning: card / ignored

     Current dimensions of program PWSCF are:
     Max number of different atomic species (ntypx) = 10
     Max number of k-points (npk) =  40000
     Max angular momentum in pseudopotentials (lmaxx) =  4

     Subspace diagonalization in iterative solution of the eigenvalue problem:
     a serial algorithm will be used

 
     G-vector sticks info
     --------------------
     sticks:   dense  smooth     PW     G-vecs:    dense   smooth      PW
     Sum        1345     439    151                32455     6231    1139
 
     Using Slab Decomposition
 


     bravais-lattice index     =            2
     lattice parameter (alat)  =       9.0000  a.u.
     unit-cell volume          =     182.2500 (a.u.)^3
     number of atoms/cell      =            2
     number of atomic types    =            2
     number of electrons       =         8.00
     number of Kohn-Sham states=            4
     kinetic-energy cutoff     =      40.0000  Ry
     charge density cutoff     =     480.0000  Ry
     scf convergence threshold =      1.0E-08
     mixing beta               =       0.7000
     number of iterations used =            8  plain     mixing
     Exchange-correlation= SLA  PZ   NOGX NOGC
                           (   1   1   0   0   0   0   0)

     celldm(1)=   9.000000  celldm(2)=   0.000000  celldm(3)=   0.000000
     celldm(4)=   0.000000  celldm(5)=   0.000000  celldm(6)=   0.000000

     crystal axes: (cart. coord. in units of alat)
               a(1) = (  -0.500000   0.000000   0.500000 )  
               a(2) = (   0.000000   0.500000   0.500000 )  
               a(3) = (  -0.500000   0.500000   0.000000 )  

     reciprocal axes: (cart. coord. in units 2 pi/alat)
               b(1) = ( -1.000000 -1.000000  1.000000 )  
               b(2) = (  1.000000  1.000000  1.000000 )  
               b(3) = ( -1.000000  1.000000 -1.000000 )  


     PseudoPot. # 1 for B  read from file:
     ./pseudo_dir/B_LDA.UPF
     MD5 check sum: a9970de764dbc07c3a3d9583c605c3b2
     Pseudo is Ultrasoft + core correction, Zval =  3.0
     Generated by new atomic code, or converted to UPF format
     Using radial grid of  781 points,  4 beta functions with: 
                l(1) =   0
                l(2) =   0
                l(3) =   1
                l(4) =   1
     Q(r) pseudized with  8 coefficients,  rinner =    1.100   1.100   1.100


     PseudoPot. # 2 for As read from file:
     ./pseudo_dir/As_LDA.UPF
     MD5 check sum: 6d2e8cbe4ed9d0db7c6ef7a361cc050d
     Pseudo is Ultrasoft + core correction, Zval =  5.0
     Generated by new atomic code, or converted to UPF format
     Using radial grid of  875 points,  6 beta functions with: 
                l(1) =   0
                l(2) =   0
                l(3) =   1
                l(4) =   1
                l(5) =   2
                l(6) =   2
     Q(r) pseudized with  8 coefficients,  rinner =    1.300   1.300   1.300
                                                       1.300   1.300

     atomic species   valence    mass     pseudopotential
        B              3.00    10.81100     B ( 1.00)
        As             5.00    74.92160     As( 1.00)

      2 Sym. Ops. (no inversion) found



   Cartesian axes

     site n.     atom                  positions (alat units)
         1           B   tau(   1) = (   0.0000000   0.0000000   0.0000000  )
         2           As  tau(   2) = (  -0.2750000   0.2750000   0.2500000  )

     number of k points=    68
                       cart. coord. in units 2pi/alat
        k(    1) = (   0.0000000   0.0000000   0.0000000), wk =   0.0092593
        k(    2) = (  -0.1666667   0.1666667  -0.1666667), wk =   0.0185185
        k(    3) = (  -0.3333333   0.3333333  -0.3333333), wk =   0.0185185
        k(    4) = (   0.5000000  -0.5000000   0.5000000), wk =   0.0092593
        k(    5) = (   0.0000000   0.3333333   0.0000000), wk =   0.0370370
        k(    6) = (  -0.1666667   0.5000000  -0.1666667), wk =   0.0370370
        k(    7) = (   0.6666667  -0.3333333   0.6666667), wk =   0.0370370
        k(    8) = (   0.5000000  -0.1666667   0.5000000), wk =   0.0370370
        k(    9) = (   0.3333333  -0.0000000   0.3333333), wk =   0.0370370
        k(   10) = (   0.0000000   0.6666667   0.0000000), wk =   0.0370370
        k(   11) = (   0.8333333  -0.1666667   0.8333333), wk =   0.0370370
        k(   12) = (   0.6666667  -0.0000000   0.6666667), wk =   0.0370370
        k(   13) = (   0.0000000  -1.0000000   0.0000000), wk =   0.0185185
        k(   14) = (   0.6666667  -0.3333333   1.0000000), wk =   0.0370370
        k(   15) = (   0.5000000  -0.1666667   0.8333333), wk =   0.0370370
        k(   16) = (  -0.3333333  -1.0000000   0.0000000), wk =   0.0370370
        k(   17) = (   0.1666667   0.1666667   0.1666667), wk =   0.0370370
        k(   18) = (  -0.1666667   0.1666667   0.1666667), wk =   0.0185185
        k(   19) = (   0.3333333   0.3333333   0.3333333), wk =   0.0370370
        k(   20) = (  -0.3333333   0.3333333   0.3333333), wk =   0.0185185
        k(   21) = (  -0.5000000  -0.5000000  -0.5000000), wk =   0.0185185
        k(   22) = (   0.5000000  -0.5000000  -0.5000000), wk =   0.0092593
        k(   23) = (   0.0000000   0.0000000   0.3333333), wk =   0.0185185
        k(   24) = (   0.1666667   0.5000000   0.1666667), wk =   0.0370370
        k(   25) = (  -0.1666667  -0.5000000   0.1666667), wk =   0.0370370
        k(   26) = (  -0.5000000   0.1666667   0.1666667), wk =   0.0370370
        k(   27) = (   0.1666667  -0.1666667   0.5000000), wk =   0.0185185
        k(   28) = (   0.1666667   0.1666667  -0.5000000), wk =   0.0370370
        k(   29) = (  -0.1666667   0.1666667   0.5000000), wk =   0.0185185
        k(   30) = (  -0.6666667  -0.3333333  -0.6666667), wk =   0.0370370
        k(   31) = (   0.6666667   0.3333333  -0.6666667), wk =   0.0370370
        k(   32) = (   0.3333333  -0.6666667  -0.6666667), wk =   0.0370370
        k(   33) = (  -0.6666667   0.6666667  -0.3333333), wk =   0.0185185
        k(   34) = (  -0.6666667  -0.6666667   0.3333333), wk =   0.0370370
        k(   35) = (   0.6666667  -0.6666667  -0.3333333), wk =   0.0185185
        k(   36) = (  -0.5000000  -0.1666667  -0.5000000), wk =   0.0370370
        k(   37) = (   0.5000000   0.1666667  -0.5000000), wk =   0.0370370
        k(   38) = (   0.1666667  -0.5000000  -0.5000000), wk =   0.0370370
        k(   39) = (  -0.5000000   0.5000000  -0.1666667), wk =   0.0185185
        k(   40) = (  -0.5000000  -0.5000000   0.1666667), wk =   0.0370370
        k(   41) = (   0.5000000  -0.5000000  -0.1666667), wk =   0.0185185
        k(   42) = (   0.3333333   0.0000000  -0.3333333), wk =   0.0370370
        k(   43) = (  -0.3333333   0.3333333  -0.0000000), wk =   0.0185185
        k(   44) = (  -0.3333333  -0.3333333   0.0000000), wk =   0.0185185
        k(   45) = (   0.0000000   0.0000000   0.6666667), wk =   0.0185185
        k(   46) = (  -0.8333333  -0.1666667  -0.8333333), wk =   0.0370370
        k(   47) = (   0.8333333   0.1666667  -0.8333333), wk =   0.0370370
        k(   48) = (   0.1666667  -0.8333333  -0.8333333), wk =   0.0370370
        k(   49) = (  -0.8333333   0.8333333  -0.1666667), wk =   0.0185185
        k(   50) = (  -0.8333333  -0.8333333   0.1666667), wk =   0.0370370
        k(   51) = (   0.8333333  -0.8333333  -0.1666667), wk =   0.0185185
        k(   52) = (   0.6666667   0.0000000  -0.6666667), wk =   0.0370370
        k(   53) = (  -0.6666667   0.6666667   0.0000000), wk =   0.0185185
        k(   54) = (  -0.6666667  -0.6666667   0.0000000), wk =   0.0185185
        k(   55) = (   0.0000000   0.0000000  -1.0000000), wk =   0.0092593
        k(   56) = (  -0.6666667  -0.3333333  -1.0000000), wk =   0.0370370
        k(   57) = (   1.0000000   0.3333333   0.6666667), wk =   0.0370370
        k(   58) = (  -1.0000000   0.3333333  -0.6666667), wk =   0.0370370
        k(   59) = (  -0.6666667   1.0000000  -0.3333333), wk =   0.0370370
        k(   60) = (  -0.6666667  -1.0000000   0.3333333), wk =   0.0370370
        k(   61) = (  -0.5000000  -0.1666667  -0.8333333), wk =   0.0370370
        k(   62) = (   0.5000000   0.1666667  -0.8333333), wk =   0.0370370
        k(   63) = (   0.1666667  -0.5000000  -0.8333333), wk =   0.0370370
        k(   64) = (   0.8333333   0.1666667   0.5000000), wk =   0.0370370
        k(   65) = (  -0.8333333   0.1666667  -0.5000000), wk =   0.0185185
        k(   66) = (   0.8333333  -0.1666667  -0.5000000), wk =   0.0185185
        k(   67) = (   0.0000000   1.0000000  -0.3333333), wk =   0.0370370
        k(   68) = (   0.3333333   0.0000000  -1.0000000), wk =   0.0370370

     Dense  grid:    32455 G-vectors     FFT dimensions: (  45,  45,  45)

     Smooth grid:     6231 G-vectors     FFT dimensions: (  25,  25,  25)

     Estimated max dynamical RAM per process >     127.19 MB

     Initial potential from superposition of free atoms

     starting charge       7.9996, renormalised to       8.0000
     Starting wfcs are    8 randomized atomic wfcs

     total cpu time spent up to now is        4.0 secs

     Self-consistent Calculation

     iteration #  1     ecut=    40.00 Ry     beta= 0.70
     CG style diagonalization
     ethr =  1.00E-02,  avg # of iterations =  2.7

     total cpu time spent up to now is        5.9 secs

     total energy              =     -46.12945991 Ry
     estimated scf accuracy    <       0.15060941 Ry

     iteration #  2     ecut=    40.00 Ry     beta= 0.70
     CG style diagonalization
     ethr =  1.88E-03,  avg # of iterations =  4.2

     total cpu time spent up to now is        8.2 secs

     total energy              =     -46.16346838 Ry
     estimated scf accuracy    <       0.04345731 Ry

     iteration #  3     ecut=    40.00 Ry     beta= 0.70
     CG style diagonalization
     ethr =  5.43E-04,  avg # of iterations =  4.1

     total cpu time spent up to now is       10.5 secs

     total energy              =     -46.17287674 Ry
     estimated scf accuracy    <       0.00041353 Ry

     iteration #  4     ecut=    40.00 Ry     beta= 0.70
     CG style diagonalization
     ethr =  5.17E-06,  avg # of iterations =  4.5

     total cpu time spent up to now is       13.0 secs

     total energy              =     -46.17315757 Ry
     estimated scf accuracy    <       0.00007117 Ry

     iteration #  5     ecut=    40.00 Ry     beta= 0.70
     CG style diagonalization
     ethr =  8.90E-07,  avg # of iterations =  4.0

     total cpu time spent up to now is       15.3 secs

     total energy              =     -46.17317468 Ry
     estimated scf accuracy    <       0.00000089 Ry

     iteration #  6     ecut=    40.00 Ry     beta= 0.70
     CG style diagonalization
     ethr =  1.12E-08,  avg # of iterations =  6.3

     total cpu time spent up to now is       18.5 secs

     total energy              =     -46.17317704 Ry
     estimated scf accuracy    <       0.00000006 Ry

     iteration #  7     ecut=    40.00 Ry     beta= 0.70
     CG style diagonalization
     ethr =  7.33E-10,  avg # of iterations =  4.3

     total cpu time spent up to now is       20.9 secs

     End of self-consistent calculation

          k = 0.0000 0.0000 0.0000 (   749 PWs)   bands (ev):

    -7.0166   7.3341   8.5581   9.7045

          k =-0.1667 0.1667-0.1667 (   785 PWs)   bands (ev):

    -6.5566   4.9051   7.6956   8.5158

          k =-0.3333 0.3333-0.3333 (   769 PWs)   bands (ev):

    -5.2518   1.2798   6.7229   7.5125

          k = 0.5000-0.5000 0.5000 (   778 PWs)   bands (ev):

    -3.9869  -0.8385   6.3745   7.1775

          k = 0.0000 0.3333 0.0000 (   785 PWs)   bands (ev):

    -6.4122   5.7390   6.6352   7.3026

          k =-0.1667 0.5000-0.1667 (   786 PWs)   bands (ev):

    -5.3822   2.5654   5.8074   6.3740

          k = 0.6667-0.3333 0.6667 (   780 PWs)   bands (ev):

    -3.8662  -0.2127   4.7860   6.2168

          k = 0.5000-0.1667 0.5000 (   781 PWs)   bands (ev):

    -4.3428   0.5046   4.4286   6.9595

          k = 0.3333-0.0000 0.3333 (   791 PWs)   bands (ev):

    -5.8155   3.4043   5.2049   8.2813

          k = 0.0000 0.6667 0.0000 (   777 PWs)   bands (ev):

    -4.6910   2.4966   4.7623   5.3058

          k = 0.8333-0.1667 0.8333 (   769 PWs)   bands (ev):

    -3.3854   0.5861   3.3428   5.0730

          k = 0.6667-0.0000 0.6667 (   776 PWs)   bands (ev):

    -3.1505   0.3659   2.2337   5.7614

          k = 0.0000-1.0000 0.0000 (   790 PWs)   bands (ev):

    -2.9182   0.0374   4.1402   4.6390

          k = 0.6667-0.3333 1.0000 (   781 PWs)   bands (ev):

    -4.2369   1.6579   3.6278   5.2537

          k = 0.5000-0.1667 0.8333 (   776 PWs)   bands (ev):

    -3.1189  -0.0008   3.3007   4.6650

          k =-0.3333-1.0000 0.0000 (   768 PWs)   bands (ev):

    -2.7968   0.3648   3.0941   3.6815

          k = 0.1667 0.1667 0.1667 (   785 PWs)   bands (ev):

    -6.5644   5.3899   7.1029   8.6533

          k =-0.1667 0.1667 0.1667 (   785 PWs)   bands (ev):

    -6.5724   5.9228   7.0278   7.9918

          k = 0.3333 0.3333 0.3333 (   769 PWs)   bands (ev):

    -5.3039   1.6915   6.2598   7.7792

          k =-0.3333 0.3333 0.3333 (   769 PWs)   bands (ev):

    -5.3538   2.1035   6.3143   7.2802

          k =-0.5000-0.5000-0.5000 (   778 PWs)   bands (ev):

    -4.1684  -0.3318   5.9538   7.4897

          k = 0.5000-0.5000-0.5000 (   778 PWs)   bands (ev):

    -4.3167   0.1432   6.0519   7.0203

          k = 0.0000 0.0000 0.3333 (   785 PWs)   bands (ev):

    -6.4124   5.5727   6.7713   7.4095

          k = 0.1667 0.5000 0.1667 (   786 PWs)   bands (ev):

    -5.4135   3.1558   5.1381   6.4274

          k =-0.1667-0.5000 0.1667 (   786 PWs)   bands (ev):

    -5.3974   2.8012   5.4926   6.5772

          k =-0.5000 0.1667 0.1667 (   786 PWs)   bands (ev):

    -5.4284   3.3407   5.4028   6.0194

          k = 0.1667-0.1667 0.5000 (   786 PWs)   bands (ev):

    -5.3740   2.4175   5.8457   6.6015

          k = 0.1667 0.1667-0.5000 (   786 PWs)   bands (ev):

    -5.4055   2.9014   5.4151   6.5258

          k =-0.1667 0.1667 0.5000 (   786 PWs)   bands (ev):

    -5.4363   3.5530   5.1000   6.0672

          k =-0.6667-0.3333-0.6667 (   780 PWs)   bands (ev):

    -4.0079   0.3163   4.2913   6.3896

          k = 0.6667 0.3333-0.6667 (   780 PWs)   bands (ev):

    -3.9990   0.2094   5.0914   5.6708

          k = 0.3333-0.6667-0.6667 (   780 PWs)   bands (ev):

    -4.1208   0.7203   4.6729   5.6906

          k =-0.6667 0.6667-0.3333 (   780 PWs)   bands (ev):

    -3.8595  -0.2654   5.3189   5.7237

          k =-0.6667-0.6667 0.3333 (   780 PWs)   bands (ev):

    -4.0026   0.2510   4.5510   6.2381

          k = 0.6667-0.6667-0.3333 (   780 PWs)   bands (ev):

    -4.1238   0.7765   4.2680   6.0498

          k =-0.5000-0.1667-0.5000 (   781 PWs)   bands (ev):

    -4.4087   0.8786   4.0590   7.1332

          k = 0.5000 0.1667-0.5000 (   781 PWs)   bands (ev):

    -4.4633   1.0603   4.7216   6.0864

          k = 0.1667-0.5000-0.5000 (   781 PWs)   bands (ev):

    -4.5213   1.4614   4.3082   6.2013

          k =-0.5000 0.5000-0.1667 (   781 PWs)   bands (ev):

    -4.3721   0.5888   4.7828   6.4088

          k =-0.5000-0.5000 0.1667 (   781 PWs)   bands (ev):

    -4.4366   0.9908   4.2228   6.8149

          k = 0.5000-0.5000-0.1667 (   781 PWs)   bands (ev):

    -4.4957   1.3635   3.9879   6.7036

          k = 0.3333 0.0000-0.3333 (   791 PWs)   bands (ev):

    -5.8510   4.3235   5.1075   7.0477

          k =-0.3333 0.3333-0.0000 (   791 PWs)   bands (ev):

    -5.8334   3.7524   5.2546   7.6202

          k =-0.3333-0.3333 0.0000 (   791 PWs)   bands (ev):

    -5.8332   3.9697   4.8802   7.8936

          k = 0.0000 0.0000 0.6667 (   777 PWs)   bands (ev):

    -4.6900   2.3765   4.9990   5.2524

          k =-0.8333-0.1667-0.8333 (   769 PWs)   bands (ev):

    -3.4517   0.9733   2.9653   5.1090

          k = 0.8333 0.1667-0.8333 (   769 PWs)   bands (ev):

    -3.4372   0.7049   3.8487   4.5363

          k = 0.1667-0.8333-0.8333 (   769 PWs)   bands (ev):

    -3.4984   1.0333   3.5186   4.5617

          k =-0.8333 0.8333-0.1667 (   769 PWs)   bands (ev):

    -3.3704   0.4098   3.8660   4.7586

          k =-0.8333-0.8333 0.1667 (   769 PWs)   bands (ev):

    -3.4384   0.7464   3.3867   4.9979

          k = 0.8333-0.8333-0.1667 (   769 PWs)   bands (ev):

    -3.4994   1.0834   3.1908   4.8280

          k = 0.6667 0.0000-0.6667 (   776 PWs)   bands (ev):

    -3.3406   0.9564   2.4539   5.1001

          k =-0.6667 0.6667 0.0000 (   776 PWs)   bands (ev):

    -3.2450   0.5733   2.4371   5.4103

          k =-0.6667-0.6667 0.0000 (   776 PWs)   bands (ev):

    -3.2491   0.6832   2.2312   5.6033

          k = 0.0000 0.0000-1.0000 (   790 PWs)   bands (ev):

    -2.9006  -0.0590   4.3706   4.5488

          k =-0.6667-0.3333-1.0000 (   781 PWs)   bands (ev):

    -4.2376   1.7657   3.3671   5.4513

          k = 1.0000 0.3333 0.6667 (   781 PWs)   bands (ev):

    -4.2848   2.1611   3.4741   4.8819

          k =-1.0000 0.3333-0.6667 (   781 PWs)   bands (ev):

    -4.1878   1.3536   3.5497   5.6716

          k =-0.6667 1.0000-0.3333 (   781 PWs)   bands (ev):

    -4.1864   1.3043   3.5891   5.7148

          k =-0.6667-1.0000 0.3333 (   781 PWs)   bands (ev):

    -4.2836   2.0603   3.5847   4.8974

          k =-0.5000-0.1667-0.8333 (   776 PWs)   bands (ev):

    -3.2156   0.4642   2.6089   5.0580

          k = 0.5000 0.1667-0.8333 (   776 PWs)   bands (ev):

    -3.2683   0.4723   3.3814   4.2580

          k = 0.1667-0.5000-0.8333 (   776 PWs)   bands (ev):

    -3.3450   0.9359   2.7036   4.5544

          k = 0.8333 0.1667 0.5000 (   776 PWs)   bands (ev):

    -3.2451   0.4878   2.9400   4.6631

          k =-0.8333 0.1667-0.5000 (   776 PWs)   bands (ev):

    -3.0935   0.0114   2.9248   5.0320

          k = 0.8333-0.1667-0.5000 (   776 PWs)   bands (ev):

    -3.3718   0.9636   3.1475   4.0714

          k = 0.0000 1.0000-0.3333 (   768 PWs)   bands (ev):

    -2.8008   0.3951   3.0487   3.6917

          k = 0.3333 0.0000-1.0000 (   768 PWs)   bands (ev):

    -2.7869   0.2921   3.2582   3.5988

     highest occupied level (ev):     9.7045

!    total energy              =     -46.17317706 Ry
     estimated scf accuracy    <          7.7E-09 Ry

     The total energy is the sum of the following terms:
     one-electron contribution =       6.69499738 Ry
     hartree contribution      =       1.24766621 Ry
     xc contribution           =     -34.15716344 Ry
     ewald contribution        =     -19.95867719 Ry

     convergence has been achieved in   7 iterations

     Forces acting on atoms (cartesian axes, Ry/au):

     atom    1 type  1   force =    -0.07839873    0.07839873   -0.02691024
     atom    2 type  2   force =     0.07839873   -0.07839873    0.02691024

     Total force =     0.161350     Total SCF correction =     0.000012


     Computing stress (Cartesian axis) and pressure

          total   stress  (Ry/bohr**3)                   (kbar)     P=        6.80
   0.00001604  -0.00015979   0.00036287            2.36      -23.51       53.38
  -0.00015979   0.00001604  -0.00036287          -23.51        2.36      -53.38
   0.00036287  -0.00036287   0.00010662           53.38      -53.38       15.68


     Writing all to output data dir ./z-40.save/
 
     init_run     :      2.43s CPU      2.69s WALL (       1 calls)
     electrons    :     15.49s CPU     16.97s WALL (       1 calls)
     forces       :      0.40s CPU      0.44s WALL (       1 calls)
     stress       :      3.14s CPU      3.26s WALL (       1 calls)

     Called by init_run:
     wfcinit      :      0.69s CPU      0.76s WALL (       1 calls)
     potinit      :      0.04s CPU      0.06s WALL (       1 calls)
     hinit0       :      1.46s CPU      1.55s WALL (       1 calls)

     Called by electrons:
     c_bands      :     10.95s CPU     11.93s WALL (       7 calls)
     sum_band     :      3.06s CPU      3.29s WALL (       7 calls)
     v_of_rho     :      0.20s CPU      0.20s WALL (       8 calls)
     newd         :      1.40s CPU      1.60s WALL (       8 calls)
     mix_rho      :      0.05s CPU      0.06s WALL (       7 calls)

     Called by c_bands:
     init_us_2    :      1.16s CPU      1.25s WALL (    1156 calls)
     init_us_2:cp :      1.13s CPU      1.23s WALL (    1156 calls)
     ccgdiagg     :      8.66s CPU      9.43s WALL (     476 calls)
     wfcrot       :      2.23s CPU      2.38s WALL (     476 calls)

     Called by *cgdiagg:
     h_psi        :      8.57s CPU      9.22s WALL (    7026 calls)
     s_psi        :      0.69s CPU      0.77s WALL (   13576 calls)

     Called by h_psi:
     h_psi:calbec :      0.66s CPU      0.72s WALL (    7026 calls)
     vloc_psi     :      7.07s CPU      7.60s WALL (    7026 calls)
     add_vuspsi   :      0.46s CPU      0.49s WALL (    7026 calls)
     hs_1psi      :      7.34s CPU      7.95s WALL (    6550 calls)
     s_1psi       :      0.88s CPU      0.97s WALL (    6550 calls)

     General routines
     calbec       :      0.97s CPU      1.07s WALL (   14392 calls)
     fft          :      0.14s CPU      0.17s WALL (      54 calls)
     ffts         :      0.01s CPU      0.01s WALL (      15 calls)
     fftw         :      6.72s CPU      7.22s WALL (   19356 calls)
     interpolate  :      0.03s CPU      0.04s WALL (       8 calls)
 
     Parallel routines
 
     PWSCF        :     22.34s CPU     25.61s WALL

 
   This run was terminated on:  17:24:14  17Feb2022            

=------------------------------------------------------------------------------=
   JOB DONE.
=------------------------------------------------------------------------------=
